<?xml version="1.0" encoding="UTF-8"?>

<!-- generated on Thu Nov  7 19:38:27 2019 by Eclipse SUMO GUI Version 1.2.0
<configuration xmlns:xsi="http://www.w3.org/2001/XMLSchema-instance" xsi:noNamespaceSchemaLocation="http://sumo.dlr.de/xsd/sumoConfiguration.xsd">

    <input>
        <net-file value="simulation_files/sumocfgs/../networks/isolated_3_lanes_4_stages.net.xml"/>
        <route-files value="simulation_files/sumocfgs/../routes/isolated_3_lanes_half_day.rou.xml"/>
    </input>

    <output>
        <tripinfo-output value="./output/exp20_penalty_rfs_dummy/fxt__0_tripinfo_isolated.xml"/>
    </output>

    <time>
        <begin value="0"/>
        <step-length value="1"/>
    </time>

    <report>
        <verbose value="true"/>
        <no-step-log value="true"/>
    </report>

    <gui_only>
        <tracker-interval value="1"/>
    </gui_only>

</configuration>
-->

<tripinfos xmlns:xsi="http://www.w3.org/2001/XMLSchema-instance" xsi:noNamespaceSchemaLocation="http://sumo.dlr.de/xsd/tripinfo_file.xsd">
    <tripinfo id="1_1" depart="20.00" departLane="53o_0" departPos="5.10" departSpeed="0.00" departDelay="0.00" arrival="100.00" arrivalLane="51i_0" arrivalPos="10.00" arrivalSpeed="17.22" duration="80.00" routeLength="617.75" waitingTime="34.00" waitingCount="1" stopTime="0.00" timeLoss="44.25" rerouteNo="0" devices="tripinfo_1_1" vType="DEFAULT_VEHTYPE" speedFactor="0.94" vaporized=""/>
    <tripinfo id="1_0" depart="0.00" departLane="51o_0" departPos="5.10" departSpeed="0.00" departDelay="0.00" arrival="134.00" arrivalLane="52i_0" arrivalPos="10.00" arrivalSpeed="19.38" duration="134.00" routeLength="615.10" waitingTime="89.00" waitingCount="1" stopTime="0.00" timeLoss="103.29" rerouteNo="0" devices="tripinfo_1_0" vType="DEFAULT_VEHTYPE" speedFactor="1.06" vaporized=""/>
    <tripinfo id="1_5" depart="100.00" departLane="51o_0" departPos="5.10" departSpeed="0.00" departDelay="0.00" arrival="146.00" arrivalLane="53i_0" arrivalPos="10.00" arrivalSpeed="15.55" duration="46.00" routeLength="596.93" waitingTime="0.00" waitingCount="0" stopTime="0.00" timeLoss="7.89" rerouteNo="0" devices="tripinfo_1_5" vType="DEFAULT_VEHTYPE" speedFactor="0.83" vaporized=""/>
    <tripinfo id="1_2" depart="40.00" departLane="54o_0" departPos="5.10" departSpeed="0.00" departDelay="0.00" arrival="170.00" arrivalLane="51i_0" arrivalPos="10.00" arrivalSpeed="18.65" duration="130.00" routeLength="596.93" waitingTime="85.00" waitingCount="1" stopTime="0.00" timeLoss="97.74" rerouteNo="0" devices="tripinfo_1_2" vType="DEFAULT_VEHTYPE" speedFactor="1.01" vaporized=""/>
    <tripinfo id="1_4" depart="80.00" departLane="54o_0" departPos="5.10" departSpeed="0.00" departDelay="0.00" arrival="170.00" arrivalLane="52i_0" arrivalPos="10.00" arrivalSpeed="19.07" duration="90.00" routeLength="617.75" waitingTime="44.00" waitingCount="1" stopTime="0.00" timeLoss="57.87" rerouteNo="0" devices="tripinfo_1_4" vType="DEFAULT_VEHTYPE" speedFactor="1.03" vaporized=""/>
    <tripinfo id="1_3" depart="60.00" departLane="54o_0" departPos="5.10" departSpeed="0.00" departDelay="0.00" arrival="171.00" arrivalLane="51i_0" arrivalPos="10.00" arrivalSpeed="21.00" duration="111.00" routeLength="596.93" waitingTime="66.00" waitingCount="1" stopTime="0.00" timeLoss="81.28" rerouteNo="0" devices="tripinfo_1_3" vType="DEFAULT_VEHTYPE" speedFactor="1.08" vaporized=""/>
    <tripinfo id="1_6" depart="120.00" departLane="53o_0" departPos="5.10" departSpeed="0.00" departDelay="0.00" arrival="242.00" arrivalLane="51i_0" arrivalPos="10.00" arrivalSpeed="19.98" duration="122.00" routeLength="617.75" waitingTime="79.00" waitingCount="1" stopTime="0.00" timeLoss="90.14" rerouteNo="0" devices="tripinfo_1_6" vType="DEFAULT_VEHTYPE" speedFactor="1.05" vaporized=""/>
    <tripinfo id="1_10" depart="200.00" departLane="53o_0" departPos="5.10" departSpeed="0.00" departDelay="0.00" arrival="244.00" arrivalLane="51i_0" arrivalPos="10.00" arrivalSpeed="20.81" duration="44.00" routeLength="617.75" waitingTime="0.00" waitingCount="0" stopTime="0.00" timeLoss="12.95" rerouteNo="0" devices="tripinfo_1_10" vType="DEFAULT_VEHTYPE" speedFactor="1.09" vaporized=""/>
    <tripinfo id="1_7" depart="140.00" departLane="51o_0" departPos="5.10" departSpeed="0.00" departDelay="0.00" arrival="281.00" arrivalLane="54i_0" arrivalPos="10.00" arrivalSpeed="16.72" duration="141.00" routeLength="617.75" waitingTime="91.00" waitingCount="1" stopTime="0.00" timeLoss="103.27" rerouteNo="0" devices="tripinfo_1_7" vType="DEFAULT_VEHTYPE" speedFactor="0.89" vaporized=""/>
    <tripinfo id="1_8" depart="160.00" departLane="51o_0" departPos="5.10" departSpeed="0.00" departDelay="0.00" arrival="282.00" arrivalLane="54i_0" arrivalPos="10.00" arrivalSpeed="17.67" duration="122.00" routeLength="617.75" waitingTime="74.00" waitingCount="1" stopTime="0.00" timeLoss="86.78" rerouteNo="0" devices="tripinfo_1_8" vType="DEFAULT_VEHTYPE" speedFactor="0.94" vaporized=""/>
    <tripinfo id="1_9" depart="180.00" departLane="51o_0" departPos="5.10" departSpeed="0.00" departDelay="0.00" arrival="286.00" arrivalLane="54i_0" arrivalPos="10.00" arrivalSpeed="15.67" duration="106.00" routeLength="617.75" waitingTime="52.00" waitingCount="1" stopTime="0.00" timeLoss="66.65" rerouteNo="0" devices="tripinfo_1_9" vType="DEFAULT_VEHTYPE" speedFactor="0.86" vaporized=""/>
    <tripinfo id="1_12" depart="240.00" departLane="51o_0" departPos="5.10" departSpeed="0.00" departDelay="0.00" arrival="287.00" arrivalLane="54i_0" arrivalPos="10.00" arrivalSpeed="18.67" duration="47.00" routeLength="617.75" waitingTime="0.00" waitingCount="0" stopTime="0.00" timeLoss="15.29" rerouteNo="0" devices="tripinfo_1_12" vType="DEFAULT_VEHTYPE" speedFactor="1.05" vaporized=""/>
    <tripinfo id="1_11" depart="220.00" departLane="54o_0" departPos="5.10" departSpeed="0.00" departDelay="0.00" arrival="315.00" arrivalLane="52i_0" arrivalPos="10.00" arrivalSpeed="18.88" duration="95.00" routeLength="617.75" waitingTime="49.00" waitingCount="1" stopTime="0.00" timeLoss="62.51" rerouteNo="0" devices="tripinfo_1_11" vType="DEFAULT_VEHTYPE" speedFactor="1.03" vaporized=""/>
    <tripinfo id="1_15" depart="300.00" departLane="54o_0" departPos="5.10" departSpeed="0.00" departDelay="0.00" arrival="343.00" arrivalLane="51i_0" arrivalPos="10.00" arrivalSpeed="17.56" duration="43.00" routeLength="596.93" waitingTime="0.00" waitingCount="0" stopTime="0.00" timeLoss="8.74" rerouteNo="0" devices="tripinfo_1_15" vType="DEFAULT_VEHTYPE" speedFactor="0.93" vaporized=""/>
    <tripinfo id="1_13" depart="260.00" departLane="52o_0" departPos="5.10" departSpeed="0.00" departDelay="0.00" arrival="348.00" arrivalLane="54i_0" arrivalPos="10.00" arrivalSpeed="21.49" duration="88.00" routeLength="596.93" waitingTime="47.00" waitingCount="1" stopTime="0.00" timeLoss="59.38" rerouteNo="0" devices="tripinfo_1_13" vType="DEFAULT_VEHTYPE" speedFactor="1.12" vaporized=""/>
    <tripinfo id="1_14" depart="280.00" departLane="51o_0" departPos="5.10" departSpeed="0.00" departDelay="0.00" arrival="422.00" arrivalLane="52i_0" arrivalPos="10.00" arrivalSpeed="18.76" duration="142.00" routeLength="615.10" waitingTime="97.00" waitingCount="1" stopTime="0.00" timeLoss="109.73" rerouteNo="0" devices="tripinfo_1_14" vType="DEFAULT_VEHTYPE" speedFactor="0.99" vaporized=""/>
    <tripinfo id="1_16" depart="320.00" departLane="51o_0" departPos="5.10" departSpeed="0.00" departDelay="0.00" arrival="425.00" arrivalLane="54i_0" arrivalPos="10.00" arrivalSpeed="16.30" duration="105.00" routeLength="617.75" waitingTime="56.00" waitingCount="1" stopTime="0.00" timeLoss="67.21" rerouteNo="0" devices="tripinfo_1_16" vType="DEFAULT_VEHTYPE" speedFactor="0.88" vaporized=""/>
    <tripinfo id="1_17" depart="340.00" departLane="51o_0" departPos="5.10" departSpeed="0.00" departDelay="0.00" arrival="427.00" arrivalLane="54i_0" arrivalPos="10.00" arrivalSpeed="18.19" duration="87.00" routeLength="617.75" waitingTime="38.00" waitingCount="1" stopTime="0.00" timeLoss="51.17" rerouteNo="0" devices="tripinfo_1_17" vType="DEFAULT_VEHTYPE" speedFactor="0.94" vaporized=""/>
    <tripinfo id="1_18" depart="360.00" departLane="54o_0" departPos="5.10" departSpeed="0.00" departDelay="0.00" arrival="459.00" arrivalLane="53i_0" arrivalPos="10.00" arrivalSpeed="17.45" duration="99.00" routeLength="615.10" waitingTime="53.00" waitingCount="1" stopTime="0.00" timeLoss="64.48" rerouteNo="0" devices="tripinfo_1_18" vType="DEFAULT_VEHTYPE" speedFactor="0.94" vaporized=""/>
    <tripinfo id="1_19" depart="380.00" departLane="52o_0" departPos="5.10" departSpeed="0.00" departDelay="0.00" arrival="493.00" arrivalLane="53i_0" arrivalPos="10.00" arrivalSpeed="22.13" duration="113.00" routeLength="617.75" waitingTime="71.00" waitingCount="1" stopTime="0.00" timeLoss="84.68" rerouteNo="0" devices="tripinfo_1_19" vType="DEFAULT_VEHTYPE" speedFactor="1.16" vaporized=""/>
    <tripinfo id="1_21" depart="420.00" departLane="52o_0" departPos="5.10" departSpeed="0.00" departDelay="0.00" arrival="494.00" arrivalLane="51i_0" arrivalPos="10.00" arrivalSpeed="19.30" duration="74.00" routeLength="615.10" waitingTime="27.00" waitingCount="1" stopTime="0.00" timeLoss="42.58" rerouteNo="0" devices="tripinfo_1_21" vType="DEFAULT_VEHTYPE" speedFactor="1.01" vaporized=""/>
    <tripinfo id="1_22" depart="440.00" departLane="52o_0" departPos="5.10" departSpeed="0.00" departDelay="0.00" arrival="496.00" arrivalLane="54i_0" arrivalPos="10.00" arrivalSpeed="17.78" duration="56.00" routeLength="596.93" waitingTime="11.00" waitingCount="1" stopTime="0.00" timeLoss="23.03" rerouteNo="0" devices="tripinfo_1_22" vType="DEFAULT_VEHTYPE" speedFactor="0.98" vaporized=""/>
    <tripinfo id="1_23" depart="460.00" departLane="52o_0" departPos="5.10" departSpeed="0.00" departDelay="0.00" arrival="504.00" arrivalLane="54i_0" arrivalPos="10.00" arrivalSpeed="16.38" duration="44.00" routeLength="596.93" waitingTime="0.00" waitingCount="0" stopTime="0.00" timeLoss="8.61" rerouteNo="0" devices="tripinfo_1_23" vType="DEFAULT_VEHTYPE" speedFactor="0.89" vaporized=""/>
    <tripinfo id="1_20" depart="400.00" departLane="53o_0" departPos="5.10" departSpeed="0.00" departDelay="0.00" arrival="529.00" arrivalLane="52i_0" arrivalPos="10.00" arrivalSpeed="19.55" duration="129.00" routeLength="596.93" waitingTime="86.00" waitingCount="1" stopTime="0.00" timeLoss="97.52" rerouteNo="0" devices="tripinfo_1_20" vType="DEFAULT_VEHTYPE" speedFactor="1.02" vaporized=""/>
    <tripinfo id="1_24" depart="480.00" departLane="53o_0" departPos="5.10" departSpeed="0.00" departDelay="0.00" arrival="535.00" arrivalLane="52i_0" arrivalPos="10.00" arrivalSpeed="15.42" duration="55.00" routeLength="596.93" waitingTime="3.00" waitingCount="1" stopTime="0.00" timeLoss="16.27" rerouteNo="0" devices="tripinfo_1_24" vType="DEFAULT_VEHTYPE" speedFactor="0.83" vaporized=""/>
    <tripinfo id="1_25" depart="500.00" departLane="53o_0" departPos="5.10" departSpeed="0.00" departDelay="0.00" arrival="545.00" arrivalLane="51i_0" arrivalPos="10.00" arrivalSpeed="15.92" duration="45.00" routeLength="617.75" waitingTime="0.00" waitingCount="0" stopTime="0.00" timeLoss="6.65" rerouteNo="0" devices="tripinfo_1_25" vType="DEFAULT_VEHTYPE" speedFactor="0.87" vaporized=""/>
    <tripinfo id="1_26" depart="520.00" departLane="51o_0" departPos="5.10" departSpeed="0.00" departDelay="0.00" arrival="568.00" arrivalLane="54i_0" arrivalPos="10.00" arrivalSpeed="17.54" duration="48.00" routeLength="617.75" waitingTime="0.00" waitingCount="0" stopTime="0.00" timeLoss="12.10" rerouteNo="0" devices="tripinfo_1_26" vType="DEFAULT_VEHTYPE" speedFactor="0.92" vaporized=""/>
    <tripinfo id="1_29" depart="580.00" departLane="54o_0" departPos="5.10" departSpeed="0.00" departDelay="0.00" arrival="624.00" arrivalLane="52i_0" arrivalPos="10.00" arrivalSpeed="17.97" duration="44.00" routeLength="617.75" waitingTime="0.00" waitingCount="0" stopTime="0.00" timeLoss="8.61" rerouteNo="0" devices="tripinfo_1_29" vType="DEFAULT_VEHTYPE" speedFactor="0.93" vaporized=""/>
    <tripinfo id="1_27" depart="540.00" departLane="52o_0" departPos="5.10" departSpeed="0.00" departDelay="0.00" arrival="638.00" arrivalLane="54i_0" arrivalPos="10.00" arrivalSpeed="18.03" duration="98.00" routeLength="596.93" waitingTime="51.00" waitingCount="1" stopTime="0.00" timeLoss="64.25" rerouteNo="0" devices="tripinfo_1_27" vType="DEFAULT_VEHTYPE" speedFactor="0.95" vaporized=""/>
    <tripinfo id="1_28" depart="560.00" departLane="53o_0" departPos="5.10" departSpeed="0.00" departDelay="0.00" arrival="672.00" arrivalLane="52i_0" arrivalPos="10.00" arrivalSpeed="21.89" duration="112.00" routeLength="596.93" waitingTime="71.00" waitingCount="1" stopTime="0.00" timeLoss="83.92" rerouteNo="0" devices="tripinfo_1_28" vType="DEFAULT_VEHTYPE" speedFactor="1.13" vaporized=""/>
    <tripinfo id="1_32" depart="640.00" departLane="53o_0" departPos="5.10" departSpeed="0.00" departDelay="0.00" arrival="682.00" arrivalLane="52i_0" arrivalPos="10.00" arrivalSpeed="19.48" duration="42.00" routeLength="596.93" waitingTime="0.00" waitingCount="0" stopTime="0.00" timeLoss="9.88" rerouteNo="0" devices="tripinfo_1_32" vType="DEFAULT_VEHTYPE" speedFactor="1.01" vaporized=""/>
    <tripinfo id="1_31" depart="620.00" departLane="51o_0" departPos="5.10" departSpeed="0.00" departDelay="0.00" arrival="709.00" arrivalLane="54i_0" arrivalPos="10.00" arrivalSpeed="21.66" duration="89.00" routeLength="617.75" waitingTime="46.00" waitingCount="1" stopTime="0.00" timeLoss="59.99" rerouteNo="0" devices="tripinfo_1_31" vType="DEFAULT_VEHTYPE" speedFactor="1.15" vaporized=""/>
    <tripinfo id="1_33" depart="660.00" departLane="51o_0" departPos="5.10" departSpeed="0.00" departDelay="0.00" arrival="710.00" arrivalLane="54i_0" arrivalPos="10.00" arrivalSpeed="22.13" duration="50.00" routeLength="617.75" waitingTime="7.00" waitingCount="1" stopTime="0.00" timeLoss="21.98" rerouteNo="0" devices="tripinfo_1_33" vType="DEFAULT_VEHTYPE" speedFactor="1.17" vaporized=""/>
    <tripinfo id="1_34" depart="680.00" departLane="51o_0" departPos="5.10" departSpeed="0.00" departDelay="0.00" arrival="718.00" arrivalLane="52i_0" arrivalPos="10.00" arrivalSpeed="18.62" duration="38.00" routeLength="615.10" waitingTime="0.00" waitingCount="0" stopTime="0.00" timeLoss="5.97" rerouteNo="0" devices="tripinfo_1_34" vType="DEFAULT_VEHTYPE" speedFactor="0.99" vaporized=""/>
    <tripinfo id="1_30" depart="600.00" departLane="54o_0" departPos="5.10" departSpeed="0.00" departDelay="0.00" arrival="745.00" arrivalLane="52i_0" arrivalPos="10.00" arrivalSpeed="22.25" duration="145.00" routeLength="617.75" waitingTime="102.00" waitingCount="1" stopTime="0.00" timeLoss="116.67" rerouteNo="0" devices="tripinfo_1_30" vType="DEFAULT_VEHTYPE" speedFactor="1.18" vaporized=""/>
    <tripinfo id="1_35" depart="700.00" departLane="54o_0" departPos="5.10" departSpeed="0.00" departDelay="0.00" arrival="745.00" arrivalLane="51i_0" arrivalPos="10.00" arrivalSpeed="18.93" duration="45.00" routeLength="596.93" waitingTime="0.00" waitingCount="0" stopTime="0.00" timeLoss="13.33" rerouteNo="0" devices="tripinfo_1_35" vType="DEFAULT_VEHTYPE" speedFactor="1.02" vaporized=""/>
    <tripinfo id="1_36" depart="720.00" departLane="53o_0" departPos="5.10" departSpeed="0.00" departDelay="0.00" arrival="817.00" arrivalLane="52i_0" arrivalPos="10.00" arrivalSpeed="18.86" duration="97.00" routeLength="596.93" waitingTime="52.00" waitingCount="1" stopTime="0.00" timeLoss="64.35" rerouteNo="0" devices="tripinfo_1_36" vType="DEFAULT_VEHTYPE" speedFactor="0.97" vaporized=""/>
    <tripinfo id="1_38" depart="760.00" departLane="53o_0" departPos="5.10" departSpeed="0.00" departDelay="0.00" arrival="817.00" arrivalLane="51i_0" arrivalPos="10.00" arrivalSpeed="20.93" duration="57.00" routeLength="617.75" waitingTime="15.00" waitingCount="1" stopTime="0.00" timeLoss="26.86" rerouteNo="0" devices="tripinfo_1_38" vType="DEFAULT_VEHTYPE" speedFactor="1.10" vaporized=""/>
    <tripinfo id="1_37" depart="740.00" departLane="51o_0" departPos="5.10" departSpeed="0.00" departDelay="0.00" arrival="852.00" arrivalLane="52i_0" arrivalPos="10.00" arrivalSpeed="22.83" duration="112.00" routeLength="615.10" waitingTime="69.00" waitingCount="1" stopTime="0.00" timeLoss="84.74" rerouteNo="0" devices="tripinfo_1_37" vType="DEFAULT_VEHTYPE" speedFactor="1.18" vaporized=""/>
    <tripinfo id="1_41" depart="820.00" departLane="51o_0" departPos="5.10" departSpeed="0.00" departDelay="0.00" arrival="859.00" arrivalLane="52i_0" arrivalPos="10.00" arrivalSpeed="18.50" duration="39.00" routeLength="615.10" waitingTime="0.00" waitingCount="0" stopTime="0.00" timeLoss="5.75" rerouteNo="0" devices="tripinfo_1_41" vType="DEFAULT_VEHTYPE" speedFactor="0.96" vaporized=""/>
    <tripinfo id="1_42" depart="840.00" departLane="54o_0" departPos="5.10" departSpeed="0.00" departDelay="0.00" arrival="889.00" arrivalLane="53i_0" arrivalPos="10.00" arrivalSpeed="19.97" duration="49.00" routeLength="615.10" waitingTime="5.00" waitingCount="1" stopTime="0.00" timeLoss="19.91" rerouteNo="0" devices="tripinfo_1_42" vType="DEFAULT_VEHTYPE" speedFactor="1.09" vaporized=""/>
    <tripinfo id="1_40" depart="800.00" departLane="52o_0" departPos="5.10" departSpeed="0.00" departDelay="0.00" arrival="925.00" arrivalLane="54i_0" arrivalPos="10.00" arrivalSpeed="19.93" duration="125.00" routeLength="596.93" waitingTime="80.00" waitingCount="1" stopTime="0.00" timeLoss="94.50" rerouteNo="0" devices="tripinfo_1_40" vType="DEFAULT_VEHTYPE" speedFactor="1.03" vaporized=""/>
    <tripinfo id="1_39" depart="780.00" departLane="52o_0" departPos="5.10" departSpeed="0.00" departDelay="0.00" arrival="928.00" arrivalLane="53i_0" arrivalPos="10.00" arrivalSpeed="17.40" duration="148.00" routeLength="617.75" waitingTime="100.00" waitingCount="1" stopTime="0.00" timeLoss="111.62" rerouteNo="0" devices="tripinfo_1_39" vType="DEFAULT_VEHTYPE" speedFactor="0.90" vaporized=""/>
    <tripinfo id="1_45" depart="900.00" departLane="52o_0" departPos="5.10" departSpeed="0.00" departDelay="0.00" arrival="934.00" arrivalLane="51i_0" arrivalPos="10.00" arrivalSpeed="20.68" duration="34.00" routeLength="615.10" waitingTime="0.00" waitingCount="0" stopTime="0.00" timeLoss="4.85" rerouteNo="0" devices="tripinfo_1_45" vType="DEFAULT_VEHTYPE" speedFactor="1.09" vaporized=""/>
    <tripinfo id="1_43" depart="860.00" departLane="53o_0" departPos="5.10" departSpeed="0.00" departDelay="0.00" arrival="962.00" arrivalLane="54i_0" arrivalPos="10.00" arrivalSpeed="19.70" duration="102.00" routeLength="615.10" waitingTime="56.00" waitingCount="1" stopTime="0.00" timeLoss="71.33" rerouteNo="0" devices="tripinfo_1_43" vType="DEFAULT_VEHTYPE" speedFactor="1.04" vaporized=""/>
    <tripinfo id="1_44" depart="880.00" departLane="53o_0" departPos="5.10" departSpeed="0.00" departDelay="0.00" arrival="962.00" arrivalLane="51i_0" arrivalPos="10.00" arrivalSpeed="19.06" duration="82.00" routeLength="617.75" waitingTime="38.00" waitingCount="1" stopTime="0.00" timeLoss="50.62" rerouteNo="0" devices="tripinfo_1_44" vType="DEFAULT_VEHTYPE" speedFactor="1.04" vaporized=""/>
    <tripinfo id="1_48" depart="960.00" departLane="51o_0" departPos="5.10" departSpeed="0.00" departDelay="0.00" arrival="1005.00" arrivalLane="53i_0" arrivalPos="10.00" arrivalSpeed="16.76" duration="45.00" routeLength="596.93" waitingTime="0.00" waitingCount="0" stopTime="0.00" timeLoss="9.12" rerouteNo="0" devices="tripinfo_1_48" vType="DEFAULT_VEHTYPE" speedFactor="0.88" vaporized=""/>
    <tripinfo id="1_46" depart="920.00" departLane="54o_0" departPos="5.10" departSpeed="0.00" departDelay="0.00" arrival="1034.00" arrivalLane="51i_0" arrivalPos="10.00" arrivalSpeed="19.05" duration="114.00" routeLength="596.93" waitingTime="69.00" waitingCount="1" stopTime="0.00" timeLoss="81.89" rerouteNo="0" devices="tripinfo_1_46" vType="DEFAULT_VEHTYPE" speedFactor="1.00" vaporized=""/>
    <tripinfo id="1_49" depart="980.00" departLane="54o_0" departPos="5.10" departSpeed="0.00" departDelay="0.00" arrival="1037.00" arrivalLane="53i_0" arrivalPos="10.00" arrivalSpeed="16.48" duration="57.00" routeLength="615.10" waitingTime="7.00" waitingCount="1" stopTime="0.00" timeLoss="18.85" rerouteNo="0" devices="tripinfo_1_49" vType="DEFAULT_VEHTYPE" speedFactor="0.85" vaporized=""/>
    <tripinfo id="1_51" depart="1020.00" departLane="54o_0" departPos="5.10" departSpeed="0.00" departDelay="0.00" arrival="1058.00" arrivalLane="52i_0" arrivalPos="10.00" arrivalSpeed="22.19" duration="38.00" routeLength="617.75" waitingTime="0.00" waitingCount="0" stopTime="0.00" timeLoss="9.81" rerouteNo="0" devices="tripinfo_1_51" vType="DEFAULT_VEHTYPE" speedFactor="1.17" vaporized=""/>
    <tripinfo id="1_47" depart="940.00" departLane="52o_0" departPos="5.10" departSpeed="0.00" departDelay="0.00" arrival="1073.00" arrivalLane="53i_0" arrivalPos="10.00" arrivalSpeed="16.32" duration="133.00" routeLength="617.75" waitingTime="86.00" waitingCount="1" stopTime="0.00" timeLoss="96.00" rerouteNo="0" devices="tripinfo_1_47" vType="DEFAULT_VEHTYPE" speedFactor="0.90" vaporized=""/>
    <tripinfo id="1_50" depart="1000.00" departLane="53o_0" departPos="5.10" departSpeed="0.00" departDelay="0.00" arrival="1108.00" arrivalLane="52i_0" arrivalPos="10.00" arrivalSpeed="15.68" duration="108.00" routeLength="596.93" waitingTime="60.00" waitingCount="1" stopTime="0.00" timeLoss="70.81" rerouteNo="0" devices="tripinfo_1_50" vType="DEFAULT_VEHTYPE" speedFactor="0.85" vaporized=""/>
    <tripinfo id="1_52" depart="1040.00" departLane="51o_0" departPos="5.10" departSpeed="0.00" departDelay="0.00" arrival="1142.00" arrivalLane="54i_0" arrivalPos="10.00" arrivalSpeed="19.74" duration="102.00" routeLength="617.75" waitingTime="59.00" waitingCount="1" stopTime="0.00" timeLoss="69.59" rerouteNo="0" devices="tripinfo_1_52" vType="DEFAULT_VEHTYPE" speedFactor="1.02" vaporized=""/>
    <tripinfo id="1_53" depart="1060.00" departLane="54o_0" departPos="5.10" departSpeed="0.00" departDelay="0.00" arrival="1177.00" arrivalLane="53i_0" arrivalPos="10.00" arrivalSpeed="20.55" duration="117.00" routeLength="615.10" waitingTime="74.00" waitingCount="1" stopTime="0.00" timeLoss="87.88" rerouteNo="0" devices="tripinfo_1_53" vType="DEFAULT_VEHTYPE" speedFactor="1.10" vaporized=""/>
    <tripinfo id="1_54" depart="1080.00" departLane="54o_0" departPos="5.10" departSpeed="0.00" departDelay="0.00" arrival="1180.00" arrivalLane="51i_0" arrivalPos="10.00" arrivalSpeed="19.16" duration="100.00" routeLength="596.93" waitingTime="54.00" waitingCount="1" stopTime="0.00" timeLoss="67.82" rerouteNo="0" devices="tripinfo_1_54" vType="DEFAULT_VEHTYPE" speedFactor="1.00" vaporized=""/>
    <tripinfo id="1_55" depart="1100.00" departLane="52o_0" departPos="5.10" departSpeed="0.00" departDelay="0.00" arrival="1214.00" arrivalLane="53i_0" arrivalPos="10.00" arrivalSpeed="18.89" duration="114.00" routeLength="617.75" waitingTime="69.00" waitingCount="1" stopTime="0.00" timeLoss="81.08" rerouteNo="0" devices="tripinfo_1_55" vType="DEFAULT_VEHTYPE" speedFactor="1.00" vaporized=""/>
    <tripinfo id="1_59" depart="1180.00" departLane="52o_0" departPos="5.10" departSpeed="0.00" departDelay="0.00" arrival="1222.00" arrivalLane="53i_0" arrivalPos="10.00" arrivalSpeed="17.89" duration="42.00" routeLength="617.75" waitingTime="0.00" waitingCount="0" stopTime="0.00" timeLoss="7.46" rerouteNo="0" devices="tripinfo_1_59" vType="DEFAULT_VEHTYPE" speedFactor="0.97" vaporized=""/>
    <tripinfo id="1_60" depart="1200.00" departLane="52o_0" departPos="5.10" departSpeed="0.00" departDelay="0.00" arrival="1239.00" arrivalLane="53i_0" arrivalPos="10.00" arrivalSpeed="20.16" duration="39.00" routeLength="617.75" waitingTime="0.00" waitingCount="0" stopTime="0.00" timeLoss="8.34" rerouteNo="0" devices="tripinfo_1_60" vType="DEFAULT_VEHTYPE" speedFactor="1.08" vaporized=""/>
    <tripinfo id="1_57" depart="1140.00" departLane="53o_0" departPos="5.10" departSpeed="0.00" departDelay="0.00" arrival="1249.00" arrivalLane="51i_0" arrivalPos="10.00" arrivalSpeed="21.32" duration="109.00" routeLength="617.75" waitingTime="64.00" waitingCount="1" stopTime="0.00" timeLoss="79.78" rerouteNo="0" devices="tripinfo_1_57" vType="DEFAULT_VEHTYPE" speedFactor="1.14" vaporized=""/>
    <tripinfo id="1_56" depart="1120.00" departLane="53o_0" departPos="5.10" departSpeed="0.00" departDelay="0.00" arrival="1250.00" arrivalLane="52i_0" arrivalPos="10.00" arrivalSpeed="16.59" duration="130.00" routeLength="596.93" waitingTime="85.00" waitingCount="1" stopTime="0.00" timeLoss="95.17" rerouteNo="0" devices="tripinfo_1_56" vType="DEFAULT_VEHTYPE" speedFactor="0.90" vaporized=""/>
    <tripinfo id="1_58" depart="1160.00" departLane="53o_0" departPos="5.10" departSpeed="0.00" departDelay="0.00" arrival="1252.00" arrivalLane="51i_0" arrivalPos="10.00" arrivalSpeed="19.78" duration="92.00" routeLength="617.75" waitingTime="47.00" waitingCount="1" stopTime="0.00" timeLoss="59.44" rerouteNo="0" devices="tripinfo_1_58" vType="DEFAULT_VEHTYPE" speedFactor="1.02" vaporized=""/>
    <tripinfo id="1_61" depart="1220.00" departLane="51o_0" departPos="5.10" departSpeed="0.00" departDelay="0.00" arrival="1284.00" arrivalLane="53i_0" arrivalPos="10.00" arrivalSpeed="21.33" duration="64.00" routeLength="596.93" waitingTime="22.00" waitingCount="1" stopTime="0.00" timeLoss="35.17" rerouteNo="0" devices="tripinfo_1_61" vType="DEFAULT_VEHTYPE" speedFactor="1.12" vaporized=""/>
    <tripinfo id="1_62" depart="1240.00" departLane="51o_0" departPos="5.10" departSpeed="0.00" departDelay="0.00" arrival="1288.00" arrivalLane="53i_0" arrivalPos="10.00" arrivalSpeed="19.32" duration="48.00" routeLength="596.93" waitingTime="4.00" waitingCount="1" stopTime="0.00" timeLoss="16.17" rerouteNo="0" devices="tripinfo_1_62" vType="DEFAULT_VEHTYPE" speedFactor="1.02" vaporized=""/>
    <tripinfo id="1_63" depart="1260.00" departLane="51o_0" departPos="5.10" departSpeed="0.00" departDelay="0.00" arrival="1300.00" arrivalLane="53i_0" arrivalPos="10.00" arrivalSpeed="18.34" duration="40.00" routeLength="596.93" waitingTime="0.00" waitingCount="0" stopTime="0.00" timeLoss="8.01" rerouteNo="0" devices="tripinfo_1_63" vType="DEFAULT_VEHTYPE" speedFactor="0.99" vaporized=""/>
    <tripinfo id="1_64" depart="1280.00" departLane="54o_0" departPos="5.10" departSpeed="0.00" departDelay="0.00" arrival="1324.00" arrivalLane="52i_0" arrivalPos="10.00" arrivalSpeed="17.81" duration="44.00" routeLength="617.75" waitingTime="0.00" waitingCount="0" stopTime="0.00" timeLoss="7.82" rerouteNo="0" devices="tripinfo_1_64" vType="DEFAULT_VEHTYPE" speedFactor="0.94" vaporized=""/>
    <tripinfo id="1_65" depart="1300.00" departLane="54o_0" departPos="5.10" departSpeed="0.00" departDelay="0.00" arrival="1345.00" arrivalLane="51i_0" arrivalPos="10.00" arrivalSpeed="16.22" duration="45.00" routeLength="596.93" waitingTime="0.00" waitingCount="0" stopTime="0.00" timeLoss="8.22" rerouteNo="0" devices="tripinfo_1_65" vType="DEFAULT_VEHTYPE" speedFactor="0.88" vaporized=""/>
    <tripinfo id="1_66" depart="1320.00" departLane="53o_0" departPos="5.10" departSpeed="0.00" departDelay="0.00" arrival="1394.00" arrivalLane="2o_0" arrivalPos="286.40" arrivalSpeed="17.39" duration="74.00" routeLength="586.83" waitingTime="28.00" waitingCount="1" stopTime="0.00" timeLoss="38.94" rerouteNo="0" devices="tripinfo_1_66" vType="DEFAULT_VEHTYPE" speedFactor="0.91" vaporized=""/>
    <tripinfo id="1_67" depart="1340.00" departLane="53o_0" departPos="5.10" departSpeed="0.00" departDelay="0.00" arrival="1395.00" arrivalLane="54i_1" arrivalPos="10.00" arrivalSpeed="16.69" duration="55.00" routeLength="615.10" waitingTime="8.00" waitingCount="1" stopTime="0.00" timeLoss="20.30" rerouteNo="0" devices="tripinfo_1_67" vType="DEFAULT_VEHTYPE" speedFactor="0.91" vaporized=""/>
    <tripinfo id="1_68" depart="1360.00" departLane="51o_0" departPos="5.10" departSpeed="0.00" departDelay="0.00" arrival="1429.00" arrivalLane="53i_0" arrivalPos="10.00" arrivalSpeed="19.56" duration="69.00" routeLength="596.93" waitingTime="26.00" waitingCount="1" stopTime="0.00" timeLoss="38.16" rerouteNo="0" devices="tripinfo_1_68" vType="DEFAULT_VEHTYPE" speedFactor="1.04" vaporized=""/>
    <tripinfo id="1_69" depart="1380.00" departLane="51o_0" departPos="5.10" departSpeed="0.00" departDelay="0.00" arrival="1431.00" arrivalLane="54i_0" arrivalPos="10.00" arrivalSpeed="19.60" duration="51.00" routeLength="617.75" waitingTime="5.00" waitingCount="1" stopTime="0.00" timeLoss="18.20" rerouteNo="0" devices="tripinfo_1_69" vType="DEFAULT_VEHTYPE" speedFactor="1.02" vaporized=""/>
    <tripinfo id="1_70" depart="1400.00" departLane="52o_0" departPos="5.10" departSpeed="0.00" departDelay="0.00" arrival="1503.00" arrivalLane="53i_0" arrivalPos="10.00" arrivalSpeed="19.54" duration="103.00" routeLength="617.75" waitingTime="58.00" waitingCount="1" stopTime="0.00" timeLoss="70.30" rerouteNo="0" devices="tripinfo_1_70" vType="DEFAULT_VEHTYPE" speedFactor="1.02" vaporized=""/>
    <tripinfo id="1_71" depart="1420.00" departLane="53o_0" departPos="5.10" departSpeed="0.00" departDelay="0.00" arrival="1538.00" arrivalLane="54i_0" arrivalPos="10.00" arrivalSpeed="18.29" duration="118.00" routeLength="615.10" waitingTime="73.00" waitingCount="1" stopTime="0.00" timeLoss="85.17" rerouteNo="0" devices="tripinfo_1_71" vType="DEFAULT_VEHTYPE" speedFactor="0.97" vaporized=""/>
    <tripinfo id="1_74" depart="1480.00" departLane="53o_0" departPos="5.10" departSpeed="0.00" departDelay="0.00" arrival="1539.00" arrivalLane="54i_1" arrivalPos="10.00" arrivalSpeed="17.36" duration="59.00" routeLength="615.10" waitingTime="13.00" waitingCount="1" stopTime="0.00" timeLoss="25.49" rerouteNo="0" devices="tripinfo_1_74" vType="DEFAULT_VEHTYPE" speedFactor="0.96" vaporized=""/>