<?xml version="1.0" encoding="UTF-8"?>

<!-- generated on Fri Nov  8 01:50:13 2019 by Eclipse SUMO Version 1.2.0
<configuration xmlns:xsi="http://www.w3.org/2001/XMLSchema-instance" xsi:noNamespaceSchemaLocation="http://sumo.dlr.de/xsd/sumoConfiguration.xsd">

    <input>
        <net-file value="simulation_files/sumocfgs/../networks/isolated_3_lanes_4_stages.net.xml"/>
        <route-files value="simulation_files/sumocfgs/../routes/isolated_3_lanes_20p.rou.xml"/>
    </input>

    <output>
        <tripinfo-output value="./output/exp21_rf_20p/act_throughput_mqr__0_tripinfo_isolated.xml"/>
    </output>

    <time>
        <begin value="0"/>
        <step-length value="1"/>
    </time>

    <report>
        <verbose value="true"/>
        <no-step-log value="true"/>
    </report>

    <gui_only>
        <tracker-interval value="1"/>
    </gui_only>

</configuration>
-->

<tripinfos xmlns:xsi="http://www.w3.org/2001/XMLSchema-instance" xsi:noNamespaceSchemaLocation="http://sumo.dlr.de/xsd/tripinfo_file.xsd">
    <tripinfo id="2" depart="7.00" departLane="52o_0" departPos="5.10" departSpeed="0.00" departDelay="-0.14" arrival="48.00" arrivalLane="54i_0" arrivalPos="10.00" arrivalSpeed="19.14" duration="41.00" routeLength="596.93" waitingTime="0.00" waitingCount="0" stopTime="0.00" timeLoss="9.18" rerouteNo="0" devices="tripinfo_2" vType="DEFAULT_VEHTYPE" speedFactor="1.01" vaporized=""/>
    <tripinfo id="6" depart="21.00" departLane="52o_0" departPos="5.10" departSpeed="0.00" departDelay="-0.42" arrival="57.00" arrivalLane="51i_0" arrivalPos="10.00" arrivalSpeed="19.72" duration="36.00" routeLength="615.10" waitingTime="0.00" waitingCount="0" stopTime="0.00" timeLoss="5.27" rerouteNo="0" devices="tripinfo_6" vType="DEFAULT_VEHTYPE" speedFactor="1.05" vaporized=""/>
    <tripinfo id="5" depart="17.00" departLane="52o_0" departPos="5.10" departSpeed="0.00" departDelay="-0.85" arrival="64.00" arrivalLane="53i_0" arrivalPos="10.00" arrivalSpeed="15.40" duration="47.00" routeLength="617.75" waitingTime="0.00" waitingCount="0" stopTime="0.00" timeLoss="6.72" rerouteNo="0" devices="tripinfo_5" vType="DEFAULT_VEHTYPE" speedFactor="0.83" vaporized=""/>
    <tripinfo id="7" depart="24.00" departLane="52o_0" departPos="5.10" departSpeed="0.00" departDelay="-0.99" arrival="66.00" arrivalLane="51i_0" arrivalPos="10.00" arrivalSpeed="16.20" duration="42.00" routeLength="615.10" waitingTime="0.00" waitingCount="0" stopTime="0.00" timeLoss="5.58" rerouteNo="0" devices="tripinfo_7" vType="DEFAULT_VEHTYPE" speedFactor="0.89" vaporized=""/>
    <tripinfo id="8" depart="28.00" departLane="52o_0" departPos="5.10" departSpeed="0.00" departDelay="-0.56" arrival="67.00" arrivalLane="51i_0" arrivalPos="10.00" arrivalSpeed="17.67" duration="39.00" routeLength="615.10" waitingTime="0.00" waitingCount="0" stopTime="0.00" timeLoss="5.05" rerouteNo="0" devices="tripinfo_8" vType="DEFAULT_VEHTYPE" speedFactor="0.94" vaporized=""/>
    <tripinfo id="11" depart="39.00" departLane="52o_0" departPos="5.10" departSpeed="0.00" departDelay="-0.27" arrival="80.00" arrivalLane="53i_0" arrivalPos="10.00" arrivalSpeed="19.90" duration="41.00" routeLength="617.75" waitingTime="0.00" waitingCount="0" stopTime="0.00" timeLoss="8.14" rerouteNo="0" devices="tripinfo_11" vType="DEFAULT_VEHTYPE" speedFactor="1.03" vaporized=""/>
    <tripinfo id="14" depart="49.00" departLane="52o_0" departPos="5.10" departSpeed="0.00" departDelay="-0.98" arrival="91.00" arrivalLane="53i_0" arrivalPos="10.00" arrivalSpeed="18.01" duration="42.00" routeLength="617.75" waitingTime="0.00" waitingCount="0" stopTime="0.00" timeLoss="8.44" rerouteNo="0" devices="tripinfo_14" vType="DEFAULT_VEHTYPE" speedFactor="0.99" vaporized=""/>
    <tripinfo id="19" depart="67.00" departLane="52o_0" departPos="5.10" departSpeed="0.00" departDelay="-0.83" arrival="101.00" arrivalLane="51i_0" arrivalPos="10.00" arrivalSpeed="22.10" duration="34.00" routeLength="615.10" waitingTime="0.00" waitingCount="0" stopTime="0.00" timeLoss="6.37" rerouteNo="0" devices="tripinfo_19" vType="DEFAULT_VEHTYPE" speedFactor="1.16" vaporized=""/>
    <tripinfo id="16" depart="57.00" departLane="52o_0" departPos="5.10" departSpeed="0.00" departDelay="-0.12" arrival="102.00" arrivalLane="53i_0" arrivalPos="10.00" arrivalSpeed="16.64" duration="45.00" routeLength="617.75" waitingTime="0.00" waitingCount="0" stopTime="0.00" timeLoss="7.54" rerouteNo="0" devices="tripinfo_16" vType="DEFAULT_VEHTYPE" speedFactor="0.88" vaporized=""/>
    <tripinfo id="18" depart="64.00" departLane="52o_0" departPos="5.10" departSpeed="0.00" departDelay="-0.26" arrival="108.00" arrivalLane="53i_0" arrivalPos="10.00" arrivalSpeed="17.02" duration="44.00" routeLength="617.75" waitingTime="0.00" waitingCount="0" stopTime="0.00" timeLoss="8.33" rerouteNo="0" devices="tripinfo_18" vType="DEFAULT_VEHTYPE" speedFactor="0.94" vaporized=""/>
    <tripinfo id="22" depart="78.00" departLane="52o_0" departPos="5.10" departSpeed="0.00" departDelay="-0.54" arrival="120.00" arrivalLane="53i_0" arrivalPos="10.00" arrivalSpeed="18.85" duration="42.00" routeLength="617.75" waitingTime="0.00" waitingCount="0" stopTime="0.00" timeLoss="8.03" rerouteNo="0" devices="tripinfo_22" vType="DEFAULT_VEHTYPE" speedFactor="0.98" vaporized=""/>
    <tripinfo id="0" depart="0.00" departLane="53o_0" departPos="5.10" departSpeed="0.00" departDelay="0.00" arrival="129.00" arrivalLane="52i_0" arrivalPos="10.00" arrivalSpeed="19.94" duration="129.00" routeLength="596.93" waitingTime="86.00" waitingCount="1" stopTime="0.00" timeLoss="99.01" rerouteNo="0" devices="tripinfo_0" vType="DEFAULT_VEHTYPE" speedFactor="1.06" vaporized=""/>
    <tripinfo id="12" depart="42.00" departLane="53o_0" departPos="5.10" departSpeed="0.00" departDelay="-0.84" arrival="130.00" arrivalLane="54i_1" arrivalPos="10.00" arrivalSpeed="19.65" duration="88.00" routeLength="615.10" waitingTime="43.00" waitingCount="1" stopTime="0.00" timeLoss="56.95" rerouteNo="0" devices="tripinfo_12" vType="DEFAULT_VEHTYPE" speedFactor="1.05" vaporized=""/>
    <tripinfo id="15" depart="53.00" departLane="53o_0" departPos="5.10" departSpeed="0.00" departDelay="-0.55" arrival="132.00" arrivalLane="54i_1" arrivalPos="10.00" arrivalSpeed="17.76" duration="79.00" routeLength="615.10" waitingTime="30.00" waitingCount="1" stopTime="0.00" timeLoss="44.02" rerouteNo="0" devices="tripinfo_15" vType="DEFAULT_VEHTYPE" speedFactor="0.93" vaporized=""/>
    <tripinfo id="17" depart="60.00" departLane="53o_0" departPos="5.10" departSpeed="0.00" departDelay="-0.69" arrival="133.00" arrivalLane="52i_0" arrivalPos="10.00" arrivalSpeed="17.08" duration="73.00" routeLength="596.93" waitingTime="26.00" waitingCount="1" stopTime="0.00" timeLoss="38.54" rerouteNo="0" devices="tripinfo_17" vType="DEFAULT_VEHTYPE" speedFactor="0.94" vaporized=""/>
    <tripinfo id="24" depart="85.00" departLane="53o_0" departPos="5.10" departSpeed="0.00" departDelay="-0.68" arrival="135.00" arrivalLane="54i_1" arrivalPos="10.00" arrivalSpeed="14.78" duration="50.00" routeLength="615.10" waitingTime="0.00" waitingCount="0" stopTime="0.00" timeLoss="11.06" rerouteNo="0" devices="tripinfo_24" vType="DEFAULT_VEHTYPE" speedFactor="0.83" vaporized=""/>
    <tripinfo id="31" depart="110.00" departLane="53o_0" departPos="5.10" departSpeed="0.00" departDelay="-0.67" arrival="148.00" arrivalLane="52i_0" arrivalPos="10.00" arrivalSpeed="22.28" duration="38.00" routeLength="596.93" waitingTime="0.00" waitingCount="0" stopTime="0.00" timeLoss="9.71" rerouteNo="0" devices="tripinfo_31" vType="DEFAULT_VEHTYPE" speedFactor="1.15" vaporized=""/>
    <tripinfo id="32" depart="114.00" departLane="53o_0" departPos="5.10" departSpeed="0.00" departDelay="-0.24" arrival="152.00" arrivalLane="54i_0" arrivalPos="10.00" arrivalSpeed="19.25" duration="38.00" routeLength="615.10" waitingTime="0.00" waitingCount="0" stopTime="0.00" timeLoss="6.06" rerouteNo="0" devices="tripinfo_32" vType="DEFAULT_VEHTYPE" speedFactor="1.01" vaporized=""/>
    <tripinfo id="34" depart="121.00" departLane="53o_0" departPos="5.10" departSpeed="0.00" departDelay="-0.38" arrival="159.00" arrivalLane="54i_0" arrivalPos="10.00" arrivalSpeed="19.21" duration="38.00" routeLength="615.10" waitingTime="0.00" waitingCount="0" stopTime="0.00" timeLoss="5.87" rerouteNo="0" devices="tripinfo_34" vType="DEFAULT_VEHTYPE" speedFactor="0.99" vaporized=""/>
    <tripinfo id="35" depart="124.00" departLane="53o_0" departPos="5.10" departSpeed="0.00" departDelay="-0.95" arrival="162.00" arrivalLane="54i_0" arrivalPos="10.00" arrivalSpeed="18.84" duration="38.00" routeLength="615.10" waitingTime="0.00" waitingCount="0" stopTime="0.00" timeLoss="6.06" rerouteNo="0" devices="tripinfo_35" vType="DEFAULT_VEHTYPE" speedFactor="1.02" vaporized=""/>
    <tripinfo id="39" depart="139.00" departLane="53o_0" departPos="5.10" departSpeed="0.00" departDelay="-0.23" arrival="183.00" arrivalLane="52i_0" arrivalPos="10.00" arrivalSpeed="16.30" duration="44.00" routeLength="596.93" waitingTime="0.00" waitingCount="0" stopTime="0.00" timeLoss="9.01" rerouteNo="0" devices="tripinfo_39" vType="DEFAULT_VEHTYPE" speedFactor="0.90" vaporized=""/>
    <tripinfo id="1" depart="3.00" departLane="51o_0" departPos="5.10" departSpeed="0.00" departDelay="-0.57" arrival="192.00" arrivalLane="53i_0" arrivalPos="10.00" arrivalSpeed="17.29" duration="189.00" routeLength="596.93" waitingTime="142.00" waitingCount="1" stopTime="0.00" timeLoss="154.90" rerouteNo="0" devices="tripinfo_1" vType="DEFAULT_VEHTYPE" speedFactor="0.94" vaporized=""/>
    <tripinfo id="13" depart="46.00" departLane="51o_0" departPos="5.10" departSpeed="0.00" departDelay="-0.41" arrival="193.00" arrivalLane="53i_0" arrivalPos="10.00" arrivalSpeed="19.84" duration="147.00" routeLength="596.93" waitingTime="103.00" waitingCount="1" stopTime="0.00" timeLoss="119.04" rerouteNo="0" devices="tripinfo_13" vType="DEFAULT_VEHTYPE" speedFactor="1.12" vaporized=""/>
    <tripinfo id="9" depart="32.00" departLane="51o_0" departPos="5.10" departSpeed="0.00" departDelay="-0.13" arrival="195.00" arrivalLane="54i_0" arrivalPos="10.00" arrivalSpeed="16.54" duration="163.00" routeLength="617.75" waitingTime="112.00" waitingCount="1" stopTime="0.00" timeLoss="124.88" rerouteNo="0" devices="tripinfo_9" vType="DEFAULT_VEHTYPE" speedFactor="0.86" vaporized=""/>
    <tripinfo id="45" depart="160.00" departLane="51o_0" departPos="5.10" departSpeed="0.00" departDelay="-0.65" arrival="195.00" arrivalLane="52i_2" arrivalPos="10.00" arrivalSpeed="20.13" duration="35.00" routeLength="615.10" waitingTime="0.00" waitingCount="0" stopTime="0.00" timeLoss="5.53" rerouteNo="0" devices="tripinfo_45" vType="DEFAULT_VEHTYPE" speedFactor="1.09" vaporized=""/>
    <tripinfo id="21" depart="74.00" departLane="51o_0" departPos="5.10" departSpeed="0.00" departDelay="-0.97" arrival="196.00" arrivalLane="53i_0" arrivalPos="10.00" arrivalSpeed="19.21" duration="122.00" routeLength="596.93" waitingTime="77.00" waitingCount="1" stopTime="0.00" timeLoss="89.90" rerouteNo="0" devices="tripinfo_21" vType="DEFAULT_VEHTYPE" speedFactor="1.01" vaporized=""/>
    <tripinfo id="25" depart="89.00" departLane="51o_0" departPos="5.10" departSpeed="0.00" departDelay="-0.25" arrival="198.00" arrivalLane="54i_0" arrivalPos="10.00" arrivalSpeed="16.71" duration="109.00" routeLength="617.75" waitingTime="58.00" waitingCount="1" stopTime="0.00" timeLoss="70.68" rerouteNo="0" devices="tripinfo_25" vType="DEFAULT_VEHTYPE" speedFactor="0.87" vaporized=""/>
    <tripinfo id="23" depart="82.00" departLane="51o_0" departPos="5.10" departSpeed="0.00" departDelay="-0.11" arrival="201.00" arrivalLane="53i_0" arrivalPos="10.00" arrivalSpeed="16.06" duration="119.00" routeLength="596.93" waitingTime="67.00" waitingCount="1" stopTime="0.00" timeLoss="83.11" rerouteNo="0" devices="tripinfo_23" vType="DEFAULT_VEHTYPE" speedFactor="0.89" vaporized=""/>
    <tripinfo id="26" depart="92.00" departLane="51o_0" departPos="5.10" departSpeed="0.00" departDelay="-0.82" arrival="203.00" arrivalLane="53i_0" arrivalPos="10.00" arrivalSpeed="17.40" duration="111.00" routeLength="596.93" waitingTime="58.00" waitingCount="1" stopTime="0.00" timeLoss="76.12" rerouteNo="0" devices="tripinfo_26" vType="DEFAULT_VEHTYPE" speedFactor="0.92" vaporized=""/>
    <tripinfo id="41" depart="146.00" departLane="51o_0" departPos="5.10" departSpeed="0.00" departDelay="-0.37" arrival="205.00" arrivalLane="53i_0" arrivalPos="10.00" arrivalSpeed="17.95" duration="59.00" routeLength="596.93" waitingTime="8.00" waitingCount="1" stopTime="0.00" timeLoss="24.90" rerouteNo="0" devices="tripinfo_41" vType="DEFAULT_VEHTYPE" speedFactor="0.96" vaporized=""/>
    <tripinfo id="57" depart="203.00" departLane="51o_0" departPos="5.10" departSpeed="0.00" departDelay="-0.49" arrival="240.00" arrivalLane="53i_0" arrivalPos="10.00" arrivalSpeed="21.86" duration="37.00" routeLength="596.93" waitingTime="0.00" waitingCount="0" stopTime="0.00" timeLoss="8.96" rerouteNo="0" devices="tripinfo_57" vType="DEFAULT_VEHTYPE" speedFactor="1.14" vaporized=""/>
    <tripinfo id="59" depart="210.00" departLane="51o_0" departPos="5.10" departSpeed="0.00" departDelay="-0.63" arrival="252.00" arrivalLane="53i_0" arrivalPos="10.00" arrivalSpeed="17.98" duration="42.00" routeLength="596.93" waitingTime="0.00" waitingCount="0" stopTime="0.00" timeLoss="8.90" rerouteNo="0" devices="tripinfo_59" vType="DEFAULT_VEHTYPE" speedFactor="0.97" vaporized=""/>
    <tripinfo id="63" depart="224.00" departLane="51o_0" departPos="5.10" departSpeed="0.00" departDelay="-0.91" arrival="266.00" arrivalLane="54i_0" arrivalPos="10.00" arrivalSpeed="18.85" duration="42.00" routeLength="617.75" waitingTime="0.00" waitingCount="0" stopTime="0.00" timeLoss="7.99" rerouteNo="0" devices="tripinfo_63" vType="DEFAULT_VEHTYPE" speedFactor="0.99" vaporized=""/>
    <tripinfo id="64" depart="228.00" departLane="51o_0" departPos="5.10" departSpeed="0.00" departDelay="-0.48" arrival="272.00" arrivalLane="53i_0" arrivalPos="10.00" arrivalSpeed="17.47" duration="44.00" routeLength="596.93" waitingTime="0.00" waitingCount="0" stopTime="0.00" timeLoss="9.74" rerouteNo="0" devices="tripinfo_64" vType="DEFAULT_VEHTYPE" speedFactor="0.94" vaporized=""/>
    <tripinfo id="66" depart="235.00" departLane="51o_0" departPos="5.10" departSpeed="0.00" departDelay="-0.62" arrival="275.00" arrivalLane="52i_0" arrivalPos="10.00" arrivalSpeed="16.88" duration="40.00" routeLength="615.10" waitingTime="0.00" waitingCount="0" stopTime="0.00" timeLoss="5.10" rerouteNo="0" devices="tripinfo_66" vType="DEFAULT_VEHTYPE" speedFactor="0.91" vaporized=""/>
    <tripinfo id="65" depart="232.00" departLane="51o_0" departPos="5.10" departSpeed="0.00" departDelay="-0.05" arrival="277.00" arrivalLane="54i_0" arrivalPos="10.00" arrivalSpeed="16.03" duration="45.00" routeLength="617.75" waitingTime="0.00" waitingCount="0" stopTime="0.00" timeLoss="7.73" rerouteNo="0" devices="tripinfo_65" vType="DEFAULT_VEHTYPE" speedFactor="0.88" vaporized=""/>
    <tripinfo id="67" depart="239.00" departLane="51o_0" departPos="5.10" departSpeed="0.00" departDelay="-0.19" arrival="282.00" arrivalLane="3o_0" arrivalPos="286.40" arrivalSpeed="17.59" duration="43.00" routeLength="586.83" waitingTime="0.00" waitingCount="0" stopTime="0.00" timeLoss="8.84" rerouteNo="0" devices="tripinfo_67" vType="DEFAULT_VEHTYPE" speedFactor="0.91" vaporized=""/>
    <tripinfo id="20" depart="71.00" departLane="54o_0" departPos="5.10" departSpeed="0.00" departDelay="-0.40" arrival="298.00" arrivalLane="53i_1" arrivalPos="10.00" arrivalSpeed="19.13" duration="227.00" routeLength="615.10" waitingTime="183.00" waitingCount="1" stopTime="0.00" timeLoss="195.88" rerouteNo="0" devices="tripinfo_20" vType="DEFAULT_VEHTYPE" speedFactor="1.02" vaporized=""/>
    <tripinfo id="3" depart="10.00" departLane="54o_0" departPos="5.10" departSpeed="0.00" departDelay="-0.71" arrival="299.00" arrivalLane="53i_0" arrivalPos="10.00" arrivalSpeed="20.56" duration="289.00" routeLength="615.10" waitingTime="244.00" waitingCount="1" stopTime="0.00" timeLoss="259.25" rerouteNo="0" devices="tripinfo_3" vType="DEFAULT_VEHTYPE" speedFactor="1.08" vaporized=""/>
    <tripinfo id="4" depart="14.00" departLane="54o_0" departPos="5.10" departSpeed="0.00" departDelay="-0.28" arrival="299.00" arrivalLane="52i_0" arrivalPos="10.00" arrivalSpeed="19.68" duration="285.00" routeLength="617.75" waitingTime="240.00" waitingCount="1" stopTime="0.00" timeLoss="252.77" rerouteNo="0" devices="tripinfo_4" vType="DEFAULT_VEHTYPE" speedFactor="1.03" vaporized=""/>
    <tripinfo id="28" depart="99.00" departLane="54o_0" departPos="5.10" departSpeed="0.00" departDelay="-0.96" arrival="300.00" arrivalLane="51i_0" arrivalPos="10.00" arrivalSpeed="21.28" duration="201.00" routeLength="596.93" waitingTime="157.00" waitingCount="1" stopTime="0.00" timeLoss="172.58" rerouteNo="0" devices="tripinfo_28" vType="DEFAULT_VEHTYPE" speedFactor="1.13" vaporized=""/>
    <tripinfo id="10" depart="35.00" departLane="54o_0" departPos="5.10" departSpeed="0.00" departDelay="-0.70" arrival="301.00" arrivalLane="52i_0" arrivalPos="10.00" arrivalSpeed="20.13" duration="266.00" routeLength="617.75" waitingTime="222.00" waitingCount="1" stopTime="0.00" timeLoss="234.94" rerouteNo="0" devices="tripinfo_10" vType="DEFAULT_VEHTYPE" speedFactor="1.09" vaporized=""/>
    <tripinfo id="29" depart="103.00" departLane="54o_0" departPos="5.10" departSpeed="0.00" departDelay="-0.53" arrival="302.00" arrivalLane="53i_1" arrivalPos="10.00" arrivalSpeed="17.65" duration="199.00" routeLength="615.10" waitingTime="149.00" waitingCount="1" stopTime="0.00" timeLoss="164.57" rerouteNo="0" devices="tripinfo_29" vType="DEFAULT_VEHTYPE" speedFactor="0.93" vaporized=""/>
    <tripinfo id="33" depart="117.00" departLane="54o_0" departPos="5.10" departSpeed="0.00" departDelay="-0.81" arrival="302.00" arrivalLane="51i_0" arrivalPos="10.00" arrivalSpeed="21.85" duration="185.00" routeLength="596.93" waitingTime="142.00" waitingCount="1" stopTime="0.00" timeLoss="156.82" rerouteNo="0" devices="tripinfo_33" vType="DEFAULT_VEHTYPE" speedFactor="1.17" vaporized=""/>
    <tripinfo id="44" depart="157.00" departLane="54o_0" departPos="5.10" departSpeed="0.00" departDelay="-0.08" arrival="302.00" arrivalLane="53i_2" arrivalPos="10.00" arrivalSpeed="20.05" duration="145.00" routeLength="615.10" waitingTime="100.00" waitingCount="1" stopTime="0.00" timeLoss="113.78" rerouteNo="0" devices="tripinfo_44" vType="DEFAULT_VEHTYPE" speedFactor="1.04" vaporized=""/>
    <tripinfo id="56" depart="199.00" departLane="54o_0" departPos="5.10" departSpeed="0.00" departDelay="-0.92" arrival="304.00" arrivalLane="53i_1" arrivalPos="10.00" arrivalSpeed="16.97" duration="105.00" routeLength="615.10" waitingTime="54.00" waitingCount="1" stopTime="0.00" timeLoss="69.65" rerouteNo="0" devices="tripinfo_56" vType="DEFAULT_VEHTYPE" speedFactor="0.90" vaporized=""/>
    <tripinfo id="42" depart="149.00" departLane="54o_0" departPos="5.10" departSpeed="0.00" departDelay="-0.94" arrival="305.00" arrivalLane="51i_0" arrivalPos="10.00" arrivalSpeed="21.05" duration="156.00" routeLength="596.93" waitingTime="110.00" waitingCount="1" stopTime="0.00" timeLoss="126.53" rerouteNo="0" devices="tripinfo_42" vType="DEFAULT_VEHTYPE" speedFactor="1.09" vaporized=""/>
    <tripinfo id="58" depart="207.00" departLane="54o_0" departPos="5.10" departSpeed="0.00" departDelay="-0.06" arrival="306.00" arrivalLane="53i_1" arrivalPos="10.00" arrivalSpeed="18.71" duration="99.00" routeLength="615.10" waitingTime="49.00" waitingCount="1" stopTime="0.00" timeLoss="67.43" rerouteNo="0" devices="tripinfo_58" vType="DEFAULT_VEHTYPE" speedFactor="1.02" vaporized=""/>
    <tripinfo id="47" depart="167.00" departLane="54o_0" departPos="5.10" departSpeed="0.00" departDelay="-0.79" arrival="308.00" arrivalLane="52i_0" arrivalPos="10.00" arrivalSpeed="17.40" duration="141.00" routeLength="617.75" waitingTime="89.00" waitingCount="1" stopTime="0.00" timeLoss="104.28" rerouteNo="0" devices="tripinfo_47" vType="DEFAULT_VEHTYPE" speedFactor="0.90" vaporized=""/>
    <tripinfo id="75" depart="267.00" departLane="54o_0" departPos="5.10" departSpeed="0.00" departDelay="-0.75" arrival="310.00" arrivalLane="51i_0" arrivalPos="10.00" arrivalSpeed="18.11" duration="43.00" routeLength="596.93" waitingTime="0.00" waitingCount="0" stopTime="0.00" timeLoss="10.71" rerouteNo="0" devices="tripinfo_75" vType="DEFAULT_VEHTYPE" speedFactor="0.98" vaporized=""/>
    <tripinfo id="50" depart="178.00" departLane="54o_0" departPos="5.10" departSpeed="0.00" departDelay="-0.50" arrival="311.00" arrivalLane="52i_0" arrivalPos="10.00" arrivalSpeed="15.92" duration="133.00" routeLength="617.75" waitingTime="81.00" waitingCount="1" stopTime="0.00" timeLoss="94.22" rerouteNo="0" devices="tripinfo_50" vType="DEFAULT_VEHTYPE" speedFactor="0.85" vaporized=""/>
    <tripinfo id="68" depart="242.00" departLane="54o_0" departPos="5.10" departSpeed="0.00" departDelay="-0.76" arrival="313.00" arrivalLane="52i_0" arrivalPos="10.00" arrivalSpeed="19.60" duration="71.00" routeLength="617.75" waitingTime="20.00" waitingCount="1" stopTime="0.00" timeLoss="38.70" rerouteNo="0" devices="tripinfo_68" vType="DEFAULT_VEHTYPE" speedFactor="1.04" vaporized=""/>
    <tripinfo id="73" depart="260.00" departLane="54o_0" departPos="5.10" departSpeed="0.00" departDelay="-0.61" arrival="314.00" arrivalLane="52i_0" arrivalPos="10.00" arrivalSpeed="20.40" duration="54.00" routeLength="617.75" waitingTime="3.00" waitingCount="1" stopTime="0.00" timeLoss="22.61" rerouteNo="0" devices="tripinfo_73" vType="DEFAULT_VEHTYPE" speedFactor="1.06" vaporized=""/>
    <tripinfo id="78" depart="278.00" departLane="54o_0" departPos="5.10" departSpeed="0.00" departDelay="-0.46" arrival="315.00" arrivalLane="53i_0" arrivalPos="10.00" arrivalSpeed="18.40" duration="37.00" routeLength="615.10" waitingTime="0.00" waitingCount="0" stopTime="0.00" timeLoss="4.97" rerouteNo="0" devices="tripinfo_78" vType="DEFAULT_VEHTYPE" speedFactor="1.01" vaporized=""/>
    <tripinfo id="79" depart="282.00" departLane="54o_0" departPos="5.10" departSpeed="0.00" departDelay="-0.03" arrival="322.00" arrivalLane="51i_0" arrivalPos="10.00" arrivalSpeed="20.89" duration="40.00" routeLength="596.93" waitingTime="0.00" waitingCount="0" stopTime="0.00" timeLoss="10.60" rerouteNo="0" devices="tripinfo_79" vType="DEFAULT_VEHTYPE" speedFactor="1.09" vaporized=""/>
    <tripinfo id="84" depart="299.00" departLane="54o_0" departPos="5.10" departSpeed="0.00" departDelay="-0.88" arrival="337.00" arrivalLane="51i_0" arrivalPos="10.00" arrivalSpeed="21.22" duration="38.00" routeLength="596.93" waitingTime="0.00" waitingCount="0" stopTime="0.00" timeLoss="9.77" rerouteNo="0" devices="tripinfo_84" vType="DEFAULT_VEHTYPE" speedFactor="1.15" vaporized=""/>
    <tripinfo id="86" depart="307.00" departLane="54o_0" departPos="5.10" departSpeed="0.00" departDelay="-0.02" arrival="348.00" arrivalLane="51i_0" arrivalPos="10.00" arrivalSpeed="18.28" duration="41.00" routeLength="596.93" waitingTime="0.00" waitingCount="0" stopTime="0.00" timeLoss="9.26" rerouteNo="0" devices="tripinfo_86" vType="DEFAULT_VEHTYPE" speedFactor="1.00" vaporized=""/>
    <tripinfo id="89" depart="317.00" departLane="54o_0" departPos="5.10" departSpeed="0.00" departDelay="-0.73" arrival="357.00" arrivalLane="52i_0" arrivalPos="10.00" arrivalSpeed="18.86" duration="40.00" routeLength="617.75" waitingTime="0.00" waitingCount="0" stopTime="0.00" timeLoss="7.80" rerouteNo="0" devices="tripinfo_89" vType="DEFAULT_VEHTYPE" speedFactor="1.02" vaporized=""/>
    <tripinfo id="30" depart="107.00" departLane="52o_0" departPos="5.10" departSpeed="0.00" departDelay="-0.10" arrival="369.00" arrivalLane="54i_0" arrivalPos="10.00" arrivalSpeed="22.14" duration="262.00" routeLength="596.93" waitingTime="219.00" waitingCount="1" stopTime="0.00" timeLoss="234.50" rerouteNo="0" devices="tripinfo_30" vType="DEFAULT_VEHTYPE" speedFactor="1.18" vaporized=""/>
    <tripinfo id="27" depart="96.00" departLane="52o_0" departPos="5.10" departSpeed="0.00" departDelay="-0.39" arrival="370.00" arrivalLane="51i_0" arrivalPos="10.00" arrivalSpeed="17.33" duration="274.00" routeLength="615.10" waitingTime="229.00" waitingCount="1" stopTime="0.00" timeLoss="240.55" rerouteNo="0" devices="tripinfo_27" vType="DEFAULT_VEHTYPE" speedFactor="0.95" vaporized=""/>
    <tripinfo id="38" depart="135.00" departLane="52o_0" departPos="5.10" departSpeed="0.00" departDelay="-0.66" arrival="370.00" arrivalLane="53i_0" arrivalPos="10.00" arrivalSpeed="20.98" duration="235.00" routeLength="617.75" waitingTime="191.00" waitingCount="1" stopTime="0.00" timeLoss="204.83" rerouteNo="0" devices="tripinfo_38" vType="DEFAULT_VEHTYPE" speedFactor="1.10" vaporized=""/>
    <tripinfo id="46" depart="164.00" departLane="52o_0" departPos="5.10" departSpeed="0.00" departDelay="-0.22" arrival="370.00" arrivalLane="51i_1" arrivalPos="10.00" arrivalSpeed="18.52" duration="206.00" routeLength="615.10" waitingTime="160.00" waitingCount="1" stopTime="0.00" timeLoss="173.79" rerouteNo="0" devices="tripinfo_46" vType="DEFAULT_VEHTYPE" speedFactor="1.00" vaporized=""/>
    <tripinfo id="36" depart="128.00" departLane="52o_0" departPos="5.10" departSpeed="0.00" departDelay="-0.52" arrival="374.00" arrivalLane="54i_0" arrivalPos="10.00" arrivalSpeed="18.29" duration="246.00" routeLength="596.93" waitingTime="200.00" waitingCount="1" stopTime="0.00" timeLoss="213.26" rerouteNo="0" devices="tripinfo_36" vType="DEFAULT_VEHTYPE" speedFactor="0.97" vaporized=""/>
    <tripinfo id="48" depart="171.00" departLane="52o_0" departPos="5.10" departSpeed="0.00" departDelay="-0.36" arrival="374.00" arrivalLane="51i_1" arrivalPos="10.00" arrivalSpeed="15.95" duration="203.00" routeLength="615.10" waitingTime="155.00" waitingCount="1" stopTime="0.00" timeLoss="166.21" rerouteNo="0" devices="tripinfo_48" vType="DEFAULT_VEHTYPE" speedFactor="0.88" vaporized=""/>
    <tripinfo id="49" depart="174.00" departLane="52o_0" departPos="5.10" departSpeed="0.00" departDelay="-0.93" arrival="374.00" arrivalLane="51i_2" arrivalPos="10.00" arrivalSpeed="15.76" duration="200.00" routeLength="615.10" waitingTime="149.00" waitingCount="1" stopTime="0.00" timeLoss="162.80" rerouteNo="0" devices="tripinfo_49" vType="DEFAULT_VEHTYPE" speedFactor="0.85" vaporized=""/>
    <tripinfo id="53" depart="189.00" departLane="52o_0" departPos="5.10" departSpeed="0.00" departDelay="-0.21" arrival="374.00" arrivalLane="53i_0" arrivalPos="10.00" arrivalSpeed="20.64" duration="185.00" routeLength="617.75" waitingTime="140.00" waitingCount="1" stopTime="0.00" timeLoss="154.93" rerouteNo="0" devices="tripinfo_53" vType="DEFAULT_VEHTYPE" speedFactor="1.10" vaporized=""/>
    <tripinfo id="77" depart="274.00" departLane="52o_0" departPos="5.10" departSpeed="0.00" departDelay="-0.89" arrival="375.00" arrivalLane="51i_1" arrivalPos="10.00" arrivalSpeed="18.46" duration="101.00" routeLength="615.10" waitingTime="52.00" waitingCount="1" stopTime="0.00" timeLoss="68.59" rerouteNo="0" devices="tripinfo_77" vType="DEFAULT_VEHTYPE" speedFactor="0.98" vaporized=""/>
    <tripinfo id="37" depart="132.00" departLane="52o_0" departPos="5.10" departSpeed="0.00" departDelay="-0.09" arrival="376.00" arrivalLane="54i_0" arrivalPos="10.00" arrivalSpeed="22.83" duration="244.00" routeLength="596.93" waitingTime="197.00" waitingCount="1" stopTime="0.00" timeLoss="216.73" rerouteNo="0" devices="tripinfo_37" vType="DEFAULT_VEHTYPE" speedFactor="1.18" vaporized=""/>
    <tripinfo id="88" depart="314.00" departLane="52o_0" departPos="5.10" departSpeed="0.00" departDelay="-0.16" arrival="377.00" arrivalLane="51i_1" arrivalPos="10.00" arrivalSpeed="19.57" duration="63.00" routeLength="615.10" waitingTime="12.00" waitingCount="1" stopTime="0.00" timeLoss="30.95" rerouteNo="0" devices="tripinfo_88" vType="DEFAULT_VEHTYPE" speedFactor="1.01" vaporized=""/>
    <tripinfo id="40" depart="142.00" departLane="52o_0" departPos="5.10" departSpeed="0.00" departDelay="-0.80" arrival="378.00" arrivalLane="54i_0" arrivalPos="10.00" arrivalSpeed="19.65" duration="236.00" routeLength="596.93" waitingTime="190.00" waitingCount="1" stopTime="0.00" timeLoss="204.91" rerouteNo="0" devices="tripinfo_40" vType="DEFAULT_VEHTYPE" speedFactor="1.03" vaporized=""/>
    <tripinfo id="54" depart="192.00" departLane="52o_0" departPos="5.10" departSpeed="0.00" departDelay="-0.78" arrival="378.00" arrivalLane="53i_0" arrivalPos="10.00" arrivalSpeed="19.37" duration="186.00" routeLength="617.75" waitingTime="138.00" waitingCount="1" stopTime="0.00" timeLoss="152.27" rerouteNo="0" devices="tripinfo_54" vType="DEFAULT_VEHTYPE" speedFactor="1.00" vaporized=""/>
    <tripinfo id="74" depart="264.00" departLane="52o_0" departPos="5.10" departSpeed="0.00" departDelay="-0.18" arrival="380.00" arrivalLane="53i_0" arrivalPos="10.00" arrivalSpeed="18.20" duration="116.00" routeLength="617.75" waitingTime="66.00" waitingCount="1" stopTime="0.00" timeLoss="81.68" rerouteNo="0" devices="tripinfo_74" vType="DEFAULT_VEHTYPE" speedFactor="0.96" vaporized=""/>
    <tripinfo id="96" depart="342.00" departLane="52o_0" departPos="5.10" departSpeed="0.00" departDelay="-0.72" arrival="380.00" arrivalLane="51i_2" arrivalPos="10.00" arrivalSpeed="18.91" duration="38.00" routeLength="615.10" waitingTime="0.00" waitingCount="0" stopTime="0.00" timeLoss="5.96" rerouteNo="0" devices="tripinfo_96" vType="DEFAULT_VEHTYPE" speedFactor="1.01" vaporized=""/>
    <tripinfo id="43" depart="153.00" departLane="52o_0" departPos="5.10" departSpeed="0.00" departDelay="-0.51" arrival="381.00" arrivalLane="54i_0" arrivalPos="10.00" arrivalSpeed="19.00" duration="228.00" routeLength="596.93" waitingTime="180.00" waitingCount="1" stopTime="0.00" timeLoss="196.98" rerouteNo="0" devices="tripinfo_43" vType="DEFAULT_VEHTYPE" speedFactor="1.04" vaporized=""/>