<?xml version="1.0" encoding="UTF-8"?>

<!-- generated on Fri Nov  8 22:07:04 2019 by Eclipse SUMO GUI Version 1.2.0
<configuration xmlns:xsi="http://www.w3.org/2001/XMLSchema-instance" xsi:noNamespaceSchemaLocation="http://sumo.dlr.de/xsd/sumoConfiguration.xsd">

    <input>
        <net-file value="simulation_files/sumocfgs/../networks/isolated_3_lanes_4_stages.net.xml"/>
        <route-files value="simulation_files/sumocfgs/../routes/isolated_3_lanes_60p.rou.xml"/>
    </input>

    <output>
        <tripinfo-output value="./output/exp21_rf_20p/adapt_veh_n_thp__0_tripinfo_isolated.xml"/>
    </output>

    <time>
        <begin value="0"/>
        <step-length value="1"/>
    </time>

    <report>
        <verbose value="true"/>
        <no-step-log value="true"/>
    </report>

    <gui_only>
        <tracker-interval value="1"/>
    </gui_only>

</configuration>
-->

<tripinfos xmlns:xsi="http://www.w3.org/2001/XMLSchema-instance" xsi:noNamespaceSchemaLocation="http://sumo.dlr.de/xsd/tripinfo_file.xsd">
    <tripinfo id="1" depart="1.00" departLane="54o_0" departPos="5.10" departSpeed="0.00" departDelay="-0.19" arrival="40.00" arrivalLane="53i_0" arrivalPos="10.00" arrivalSpeed="17.14" duration="39.00" routeLength="615.10" waitingTime="0.00" waitingCount="0" stopTime="0.00" timeLoss="5.09" rerouteNo="0" devices="tripinfo_1" vType="DEFAULT_VEHTYPE" speedFactor="0.94" vaporized=""/>
    <tripinfo id="0" depart="0.00" departLane="52o_0" departPos="5.10" departSpeed="0.00" departDelay="0.00" arrival="47.00" arrivalLane="53i_0" arrivalPos="10.00" arrivalSpeed="20.00" duration="47.00" routeLength="617.75" waitingTime="2.00" waitingCount="1" stopTime="0.00" timeLoss="15.40" rerouteNo="0" devices="tripinfo_0" vType="DEFAULT_VEHTYPE" speedFactor="1.06" vaporized=""/>
    <tripinfo id="5" depart="5.00" departLane="52o_0" departPos="5.10" departSpeed="0.00" departDelay="-0.95" arrival="49.00" arrivalLane="51i_0" arrivalPos="10.00" arrivalSpeed="15.14" duration="44.00" routeLength="615.10" waitingTime="0.00" waitingCount="0" stopTime="0.00" timeLoss="5.00" rerouteNo="0" devices="tripinfo_5" vType="DEFAULT_VEHTYPE" speedFactor="0.83" vaporized=""/>
    <tripinfo id="9" depart="10.00" departLane="52o_0" departPos="5.10" departSpeed="0.00" departDelay="-0.71" arrival="55.00" arrivalLane="54i_0" arrivalPos="10.00" arrivalSpeed="16.48" duration="45.00" routeLength="596.93" waitingTime="0.00" waitingCount="0" stopTime="0.00" timeLoss="7.78" rerouteNo="0" devices="tripinfo_9" vType="DEFAULT_VEHTYPE" speedFactor="0.86" vaporized=""/>
    <tripinfo id="17" depart="20.00" departLane="52o_0" departPos="5.10" departSpeed="0.00" departDelay="-0.23" arrival="64.00" arrivalLane="53i_0" arrivalPos="10.00" arrivalSpeed="17.02" duration="44.00" routeLength="617.75" waitingTime="0.00" waitingCount="0" stopTime="0.00" timeLoss="8.82" rerouteNo="0" devices="tripinfo_17" vType="DEFAULT_VEHTYPE" speedFactor="0.94" vaporized=""/>
    <tripinfo id="18" depart="23.00" departLane="52o_0" departPos="5.10" departSpeed="0.00" departDelay="1.58" arrival="66.00" arrivalLane="53i_0" arrivalPos="10.00" arrivalSpeed="17.45" duration="43.00" routeLength="617.75" waitingTime="0.00" waitingCount="0" stopTime="0.00" timeLoss="7.41" rerouteNo="0" devices="tripinfo_18" vType="DEFAULT_VEHTYPE" speedFactor="0.94" vaporized=""/>
    <tripinfo id="27" depart="32.00" departLane="52o_0" departPos="5.10" departSpeed="0.00" departDelay="-0.13" arrival="70.00" arrivalLane="51i_0" arrivalPos="10.00" arrivalSpeed="18.00" duration="38.00" routeLength="615.10" waitingTime="0.00" waitingCount="0" stopTime="0.00" timeLoss="4.64" rerouteNo="0" devices="tripinfo_27" vType="DEFAULT_VEHTYPE" speedFactor="0.95" vaporized=""/>
    <tripinfo id="28" depart="35.00" departLane="52o_0" departPos="5.10" departSpeed="0.00" departDelay="1.68" arrival="74.00" arrivalLane="54i_0" arrivalPos="10.00" arrivalSpeed="21.50" duration="39.00" routeLength="596.93" waitingTime="0.00" waitingCount="0" stopTime="0.00" timeLoss="10.56" rerouteNo="0" devices="tripinfo_28" vType="DEFAULT_VEHTYPE" speedFactor="1.13" vaporized=""/>
    <tripinfo id="32" depart="41.00" departLane="53o_0" departPos="5.10" departSpeed="0.00" departDelay="2.92" arrival="83.00" arrivalLane="54i_1" arrivalPos="10.00" arrivalSpeed="18.35" duration="42.00" routeLength="615.10" waitingTime="0.00" waitingCount="0" stopTime="0.00" timeLoss="10.48" rerouteNo="0" devices="tripinfo_32" vType="DEFAULT_VEHTYPE" speedFactor="1.01" vaporized=""/>
    <tripinfo id="4" depart="4.00" departLane="53o_0" departPos="5.10" departSpeed="0.00" departDelay="-0.76" arrival="86.00" arrivalLane="51i_0" arrivalPos="10.00" arrivalSpeed="19.81" duration="82.00" routeLength="617.75" waitingTime="38.00" waitingCount="1" stopTime="0.00" timeLoss="49.70" rerouteNo="0" devices="tripinfo_4" vType="DEFAULT_VEHTYPE" speedFactor="1.03" vaporized=""/>
    <tripinfo id="23" depart="27.00" departLane="53o_0" departPos="5.10" departSpeed="0.00" departDelay="-0.37" arrival="87.00" arrivalLane="54i_0" arrivalPos="10.00" arrivalSpeed="16.22" duration="60.00" routeLength="615.10" waitingTime="12.00" waitingCount="1" stopTime="0.00" timeLoss="24.16" rerouteNo="0" devices="tripinfo_23" vType="DEFAULT_VEHTYPE" speedFactor="0.89" vaporized=""/>
    <tripinfo id="13" depart="15.00" departLane="53o_0" departPos="5.10" departSpeed="0.00" departDelay="-0.47" arrival="88.00" arrivalLane="51i_0" arrivalPos="10.00" arrivalSpeed="20.84" duration="73.00" routeLength="617.75" waitingTime="28.00" waitingCount="1" stopTime="0.00" timeLoss="42.85" rerouteNo="0" devices="tripinfo_13" vType="DEFAULT_VEHTYPE" speedFactor="1.12" vaporized=""/>
    <tripinfo id="26" depart="30.00" departLane="53o_0" departPos="5.10" departSpeed="0.00" departDelay="-0.94" arrival="88.00" arrivalLane="52i_0" arrivalPos="10.00" arrivalSpeed="17.23" duration="58.00" routeLength="596.93" waitingTime="11.00" waitingCount="1" stopTime="0.00" timeLoss="23.36" rerouteNo="0" devices="tripinfo_26" vType="DEFAULT_VEHTYPE" speedFactor="0.92" vaporized=""/>
    <tripinfo id="39" depart="47.00" departLane="53o_0" departPos="5.10" departSpeed="0.00" departDelay="0.59" arrival="88.00" arrivalLane="54i_1" arrivalPos="10.00" arrivalSpeed="16.80" duration="41.00" routeLength="615.10" waitingTime="0.00" waitingCount="0" stopTime="0.00" timeLoss="5.32" rerouteNo="0" devices="tripinfo_39" vType="DEFAULT_VEHTYPE" speedFactor="0.90" vaporized=""/>
    <tripinfo id="30" depart="35.00" departLane="53o_0" departPos="5.10" departSpeed="0.00" departDelay="-0.70" arrival="90.00" arrivalLane="52i_0" arrivalPos="10.00" arrivalSpeed="20.54" duration="55.00" routeLength="596.93" waitingTime="8.00" waitingCount="1" stopTime="0.00" timeLoss="27.98" rerouteNo="0" devices="tripinfo_30" vType="DEFAULT_VEHTYPE" speedFactor="1.18" vaporized=""/>
    <tripinfo id="20" depart="23.00" departLane="53o_0" departPos="5.10" departSpeed="0.00" departDelay="-0.80" arrival="92.00" arrivalLane="51i_0" arrivalPos="10.00" arrivalSpeed="19.44" duration="69.00" routeLength="617.75" waitingTime="20.00" waitingCount="1" stopTime="0.00" timeLoss="36.21" rerouteNo="0" devices="tripinfo_20" vType="DEFAULT_VEHTYPE" speedFactor="1.02" vaporized=""/>
    <tripinfo id="31" depart="38.00" departLane="53o_0" departPos="5.10" departSpeed="0.00" departDelay="1.11" arrival="92.00" arrivalLane="52i_0" arrivalPos="10.00" arrivalSpeed="21.17" duration="54.00" routeLength="596.93" waitingTime="6.00" waitingCount="1" stopTime="0.00" timeLoss="25.24" rerouteNo="0" devices="tripinfo_31" vType="DEFAULT_VEHTYPE" speedFactor="1.15" vaporized=""/>
    <tripinfo id="37" depart="44.00" departLane="53o_0" departPos="5.10" departSpeed="0.00" departDelay="-0.03" arrival="93.00" arrivalLane="51i_0" arrivalPos="10.00" arrivalSpeed="21.57" duration="49.00" routeLength="617.75" waitingTime="1.00" waitingCount="1" stopTime="0.00" timeLoss="21.05" rerouteNo="0" devices="tripinfo_37" vType="DEFAULT_VEHTYPE" speedFactor="1.18" vaporized=""/>
    <tripinfo id="43" depart="53.00" departLane="53o_0" departPos="5.10" departSpeed="0.00" departDelay="1.83" arrival="94.00" arrivalLane="52i_0" arrivalPos="10.00" arrivalSpeed="19.01" duration="41.00" routeLength="596.93" waitingTime="0.00" waitingCount="0" stopTime="0.00" timeLoss="10.16" rerouteNo="0" devices="tripinfo_43" vType="DEFAULT_VEHTYPE" speedFactor="1.04" vaporized=""/>
    <tripinfo id="40" depart="50.00" departLane="53o_0" departPos="5.10" departSpeed="0.00" departDelay="2.40" arrival="96.00" arrivalLane="51i_0" arrivalPos="10.00" arrivalSpeed="18.81" duration="46.00" routeLength="617.75" waitingTime="0.00" waitingCount="0" stopTime="0.00" timeLoss="14.10" rerouteNo="0" devices="tripinfo_40" vType="DEFAULT_VEHTYPE" speedFactor="1.03" vaporized=""/>
    <tripinfo id="44" depart="56.00" departLane="53o_0" departPos="5.10" departSpeed="0.00" departDelay="3.64" arrival="97.00" arrivalLane="52i_0" arrivalPos="10.00" arrivalSpeed="20.23" duration="41.00" routeLength="596.93" waitingTime="0.00" waitingCount="0" stopTime="0.00" timeLoss="10.12" rerouteNo="0" devices="tripinfo_44" vType="DEFAULT_VEHTYPE" speedFactor="1.04" vaporized=""/>
    <tripinfo id="53" depart="64.00" departLane="53o_0" departPos="5.10" departSpeed="0.00" departDelay="0.93" arrival="100.00" arrivalLane="54i_0" arrivalPos="10.00" arrivalSpeed="20.20" duration="36.00" routeLength="615.10" waitingTime="0.00" waitingCount="0" stopTime="0.00" timeLoss="6.81" rerouteNo="0" devices="tripinfo_53" vType="DEFAULT_VEHTYPE" speedFactor="1.10" vaporized=""/>
    <tripinfo id="52" depart="61.00" departLane="53o_0" departPos="5.10" departSpeed="0.00" departDelay="-0.88" arrival="103.00" arrivalLane="51i_0" arrivalPos="10.00" arrivalSpeed="19.38" duration="42.00" routeLength="617.75" waitingTime="0.00" waitingCount="0" stopTime="0.00" timeLoss="8.70" rerouteNo="0" devices="tripinfo_52" vType="DEFAULT_VEHTYPE" speedFactor="1.02" vaporized=""/>
    <tripinfo id="54" depart="67.00" departLane="53o_0" departPos="5.10" departSpeed="0.00" departDelay="2.74" arrival="105.00" arrivalLane="54i_0" arrivalPos="10.00" arrivalSpeed="18.52" duration="38.00" routeLength="615.10" waitingTime="0.00" waitingCount="0" stopTime="0.00" timeLoss="5.78" rerouteNo="0" devices="tripinfo_54" vType="DEFAULT_VEHTYPE" speedFactor="1.00" vaporized=""/>
    <tripinfo id="55" depart="70.00" departLane="53o_0" departPos="5.10" departSpeed="0.00" departDelay="4.55" arrival="111.00" arrivalLane="52i_0" arrivalPos="10.00" arrivalSpeed="18.74" duration="41.00" routeLength="596.93" waitingTime="0.00" waitingCount="0" stopTime="0.00" timeLoss="9.35" rerouteNo="0" devices="tripinfo_55" vType="DEFAULT_VEHTYPE" speedFactor="1.00" vaporized=""/>
    <tripinfo id="60" depart="76.00" departLane="53o_0" departPos="5.10" departSpeed="0.00" departDelay="4.60" arrival="111.00" arrivalLane="54i_0" arrivalPos="10.00" arrivalSpeed="20.68" duration="35.00" routeLength="615.10" waitingTime="0.00" waitingCount="0" stopTime="0.00" timeLoss="5.44" rerouteNo="0" devices="tripinfo_60" vType="DEFAULT_VEHTYPE" speedFactor="1.08" vaporized=""/>
    <tripinfo id="57" depart="73.00" departLane="53o_0" departPos="5.10" departSpeed="0.00" departDelay="5.17" arrival="112.00" arrivalLane="51i_0" arrivalPos="10.00" arrivalSpeed="21.76" duration="39.00" routeLength="617.75" waitingTime="0.00" waitingCount="0" stopTime="0.00" timeLoss="9.44" rerouteNo="0" devices="tripinfo_57" vType="DEFAULT_VEHTYPE" speedFactor="1.14" vaporized=""/>
    <tripinfo id="62" depart="79.00" departLane="53o_0" departPos="5.10" departSpeed="0.00" departDelay="5.22" arrival="116.00" arrivalLane="54i_0" arrivalPos="10.00" arrivalSpeed="19.50" duration="37.00" routeLength="615.10" waitingTime="0.00" waitingCount="0" stopTime="0.00" timeLoss="5.31" rerouteNo="0" devices="tripinfo_62" vType="DEFAULT_VEHTYPE" speedFactor="1.02" vaporized=""/>
    <tripinfo id="63" depart="82.00" departLane="53o_0" departPos="5.10" departSpeed="0.00" departDelay="7.03" arrival="123.00" arrivalLane="52i_0" arrivalPos="10.00" arrivalSpeed="19.01" duration="41.00" routeLength="596.93" waitingTime="0.00" waitingCount="0" stopTime="0.00" timeLoss="8.74" rerouteNo="0" devices="tripinfo_63" vType="DEFAULT_VEHTYPE" speedFactor="0.99" vaporized=""/>
    <tripinfo id="68" depart="88.00" departLane="53o_0" departPos="5.10" departSpeed="0.00" departDelay="7.08" arrival="125.00" arrivalLane="54i_1" arrivalPos="10.00" arrivalSpeed="19.96" duration="37.00" routeLength="615.10" waitingTime="0.00" waitingCount="0" stopTime="0.00" timeLoss="5.99" rerouteNo="0" devices="tripinfo_68" vType="DEFAULT_VEHTYPE" speedFactor="1.04" vaporized=""/>
    <tripinfo id="66" depart="85.00" departLane="53o_0" departPos="5.10" departSpeed="0.00" departDelay="6.46" arrival="129.00" arrivalLane="52i_0" arrivalPos="10.00" arrivalSpeed="16.72" duration="44.00" routeLength="596.93" waitingTime="0.00" waitingCount="0" stopTime="0.00" timeLoss="8.70" rerouteNo="0" devices="tripinfo_66" vType="DEFAULT_VEHTYPE" speedFactor="0.91" vaporized=""/>
    <tripinfo id="73" depart="91.00" departLane="53o_0" departPos="5.10" departSpeed="0.00" departDelay="4.13" arrival="132.00" arrivalLane="51i_0" arrivalPos="10.00" arrivalSpeed="19.76" duration="41.00" routeLength="617.75" waitingTime="0.00" waitingCount="0" stopTime="0.00" timeLoss="9.85" rerouteNo="0" devices="tripinfo_73" vType="DEFAULT_VEHTYPE" speedFactor="1.06" vaporized=""/>
    <tripinfo id="77" depart="94.00" departLane="53o_0" departPos="5.10" departSpeed="0.00" departDelay="2.37" arrival="136.00" arrivalLane="51i_0" arrivalPos="10.00" arrivalSpeed="18.05" duration="42.00" routeLength="617.75" waitingTime="0.00" waitingCount="0" stopTime="0.00" timeLoss="7.96" rerouteNo="0" devices="tripinfo_77" vType="DEFAULT_VEHTYPE" speedFactor="0.98" vaporized=""/>
    <tripinfo id="79" depart="97.00" departLane="53o_0" departPos="5.10" departSpeed="0.00" departDelay="2.99" arrival="136.00" arrivalLane="52i_0" arrivalPos="10.00" arrivalSpeed="20.03" duration="39.00" routeLength="596.93" waitingTime="0.00" waitingCount="0" stopTime="0.00" timeLoss="9.28" rerouteNo="0" devices="tripinfo_79" vType="DEFAULT_VEHTYPE" speedFactor="1.09" vaporized=""/>
    <tripinfo id="80" depart="100.00" departLane="53o_0" departPos="5.10" departSpeed="0.00" departDelay="4.80" arrival="137.00" arrivalLane="54i_1" arrivalPos="10.00" arrivalSpeed="18.84" duration="37.00" routeLength="615.10" waitingTime="0.00" waitingCount="0" stopTime="0.00" timeLoss="5.52" rerouteNo="0" devices="tripinfo_80" vType="DEFAULT_VEHTYPE" speedFactor="1.03" vaporized=""/>
    <tripinfo id="81" depart="103.00" departLane="53o_0" departPos="5.10" departSpeed="0.00" departDelay="6.61" arrival="141.00" arrivalLane="54i_0" arrivalPos="10.00" arrivalSpeed="19.07" duration="38.00" routeLength="615.10" waitingTime="0.00" waitingCount="0" stopTime="0.00" timeLoss="5.81" rerouteNo="0" devices="tripinfo_81" vType="DEFAULT_VEHTYPE" speedFactor="1.00" vaporized=""/>
    <tripinfo id="88" depart="106.00" departLane="53o_0" departPos="5.10" departSpeed="0.00" departDelay="1.28" arrival="143.00" arrivalLane="54i_0" arrivalPos="10.00" arrivalSpeed="18.74" duration="37.00" routeLength="615.10" waitingTime="0.00" waitingCount="0" stopTime="0.00" timeLoss="5.55" rerouteNo="0" devices="tripinfo_88" vType="DEFAULT_VEHTYPE" speedFactor="1.01" vaporized=""/>
    <tripinfo id="90" depart="109.00" departLane="53o_0" departPos="5.10" departSpeed="0.00" departDelay="1.90" arrival="146.00" arrivalLane="54i_0" arrivalPos="10.00" arrivalSpeed="19.60" duration="37.00" routeLength="615.10" waitingTime="0.00" waitingCount="0" stopTime="0.00" timeLoss="5.80" rerouteNo="0" devices="tripinfo_90" vType="DEFAULT_VEHTYPE" speedFactor="1.02" vaporized=""/>
    <tripinfo id="3" depart="5.00" departLane="51o_0" departPos="5.10" departSpeed="0.00" departDelay="1.43" arrival="155.00" arrivalLane="52i_1" arrivalPos="10.00" arrivalSpeed="20.35" duration="150.00" routeLength="615.10" waitingTime="106.00" waitingCount="1" stopTime="0.00" timeLoss="120.55" rerouteNo="0" devices="tripinfo_3" vType="DEFAULT_VEHTYPE" speedFactor="1.08" vaporized=""/>
    <tripinfo id="2" depart="2.00" departLane="51o_0" departPos="5.10" departSpeed="0.00" departDelay="-0.38" arrival="156.00" arrivalLane="52i_0" arrivalPos="10.00" arrivalSpeed="18.83" duration="154.00" routeLength="615.10" waitingTime="109.00" waitingCount="1" stopTime="0.00" timeLoss="122.10" rerouteNo="0" devices="tripinfo_2" vType="DEFAULT_VEHTYPE" speedFactor="1.01" vaporized=""/>
    <tripinfo id="10" depart="12.00" departLane="51o_0" departPos="5.10" departSpeed="0.00" departDelay="0.10" arrival="157.00" arrivalLane="53i_0" arrivalPos="10.00" arrivalSpeed="20.04" duration="145.00" routeLength="596.93" waitingTime="101.00" waitingCount="1" stopTime="0.00" timeLoss="115.52" rerouteNo="0" devices="tripinfo_10" vType="DEFAULT_VEHTYPE" speedFactor="1.09" vaporized=""/>
    <tripinfo id="8" depart="9.00" departLane="51o_0" departPos="5.10" departSpeed="0.00" departDelay="-0.52" arrival="158.00" arrivalLane="54i_0" arrivalPos="10.00" arrivalSpeed="17.46" duration="149.00" routeLength="617.75" waitingTime="100.00" waitingCount="1" stopTime="0.00" timeLoss="113.69" rerouteNo="0" devices="tripinfo_8" vType="DEFAULT_VEHTYPE" speedFactor="0.94" vaporized=""/>
    <tripinfo id="14" depart="18.00" departLane="51o_0" departPos="5.10" departSpeed="0.00" departDelay="1.34" arrival="158.00" arrivalLane="52i_1" arrivalPos="10.00" arrivalSpeed="19.19" duration="140.00" routeLength="615.10" waitingTime="91.00" waitingCount="1" stopTime="0.00" timeLoss="107.61" rerouteNo="0" devices="tripinfo_14" vType="DEFAULT_VEHTYPE" speedFactor="0.99" vaporized=""/>
    <tripinfo id="12" depart="15.00" departLane="51o_0" departPos="5.10" departSpeed="0.00" departDelay="0.72" arrival="160.00" arrivalLane="54i_0" arrivalPos="10.00" arrivalSpeed="20.25" duration="145.00" routeLength="617.75" waitingTime="96.00" waitingCount="1" stopTime="0.00" timeLoss="112.95" rerouteNo="0" devices="tripinfo_12" vType="DEFAULT_VEHTYPE" speedFactor="1.05" vaporized=""/>
    <tripinfo id="34" depart="40.00" departLane="51o_0" departPos="5.10" departSpeed="0.00" departDelay="-0.46" arrival="160.00" arrivalLane="52i_1" arrivalPos="10.00" arrivalSpeed="19.29" duration="120.00" routeLength="615.10" waitingTime="71.00" waitingCount="1" stopTime="0.00" timeLoss="87.40" rerouteNo="0" devices="tripinfo_34" vType="DEFAULT_VEHTYPE" speedFactor="0.99" vaporized=""/>
    <tripinfo id="15" depart="21.00" departLane="51o_0" departPos="5.10" departSpeed="0.00" departDelay="3.15" arrival="161.00" arrivalLane="53i_0" arrivalPos="10.00" arrivalSpeed="17.97" duration="140.00" routeLength="596.93" waitingTime="93.00" waitingCount="1" stopTime="0.00" timeLoss="105.83" rerouteNo="0" devices="tripinfo_15" vType="DEFAULT_VEHTYPE" speedFactor="0.93" vaporized=""/>
    <tripinfo id="25" depart="29.00" departLane="51o_0" departPos="5.10" departSpeed="0.00" departDelay="-0.75" arrival="163.00" arrivalLane="52i_2" arrivalPos="10.00" arrivalSpeed="15.93" duration="134.00" routeLength="615.10" waitingTime="84.00" waitingCount="1" stopTime="0.00" timeLoss="97.58" rerouteNo="0" devices="tripinfo_25" vType="DEFAULT_VEHTYPE" speedFactor="0.87" vaporized=""/>
    <tripinfo id="41" depart="48.00" departLane="51o_0" departPos="5.10" departSpeed="0.00" departDelay="-0.79" arrival="163.00" arrivalLane="52i_1" arrivalPos="10.00" arrivalSpeed="18.53" duration="115.00" routeLength="615.10" waitingTime="63.00" waitingCount="1" stopTime="0.00" timeLoss="81.08" rerouteNo="0" devices="tripinfo_41" vType="DEFAULT_VEHTYPE" speedFactor="0.96" vaporized=""/>
    <tripinfo id="61" depart="72.00" departLane="51o_0" departPos="5.10" departSpeed="0.00" departDelay="-0.59" arrival="163.00" arrivalLane="53i_0" arrivalPos="10.00" arrivalSpeed="20.58" duration="91.00" routeLength="596.93" waitingTime="44.00" waitingCount="1" stopTime="0.00" timeLoss="61.49" rerouteNo="0" devices="tripinfo_61" vType="DEFAULT_VEHTYPE" speedFactor="1.12" vaporized=""/>
    <tripinfo id="95" depart="113.00" departLane="51o_0" departPos="5.10" departSpeed="0.00" departDelay="-0.05" arrival="164.00" arrivalLane="53i_0" arrivalPos="10.00" arrivalSpeed="20.13" duration="51.00" routeLength="596.93" waitingTime="3.00" waitingCount="1" stopTime="0.00" timeLoss="21.19" rerouteNo="0" devices="tripinfo_95" vType="DEFAULT_VEHTYPE" speedFactor="1.06" vaporized=""/>
    <tripinfo id="29" depart="34.00" departLane="51o_0" departPos="5.10" departSpeed="0.00" departDelay="-0.51" arrival="165.00" arrivalLane="54i_0" arrivalPos="10.00" arrivalSpeed="17.69" duration="131.00" routeLength="617.75" waitingTime="79.00" waitingCount="1" stopTime="0.00" timeLoss="95.36" rerouteNo="0" devices="tripinfo_29" vType="DEFAULT_VEHTYPE" speedFactor="0.93" vaporized=""/>
    <tripinfo id="42" depart="51.00" departLane="51o_0" departPos="5.10" departSpeed="0.00" departDelay="1.02" arrival="165.00" arrivalLane="52i_2" arrivalPos="10.00" arrivalSpeed="20.13" duration="114.00" routeLength="615.10" waitingTime="66.00" waitingCount="1" stopTime="0.00" timeLoss="84.31" rerouteNo="0" devices="tripinfo_42" vType="DEFAULT_VEHTYPE" speedFactor="1.09" vaporized=""/>
    <tripinfo id="59" depart="70.00" departLane="51o_0" departPos="5.10" departSpeed="0.00" departDelay="-0.21" arrival="165.00" arrivalLane="52i_1" arrivalPos="10.00" arrivalSpeed="18.24" duration="95.00" routeLength="615.10" waitingTime="43.00" waitingCount="1" stopTime="0.00" timeLoss="61.44" rerouteNo="0" devices="tripinfo_59" vType="DEFAULT_VEHTYPE" speedFactor="0.97" vaporized=""/>
    <tripinfo id="99" depart="119.00" departLane="51o_0" departPos="5.10" departSpeed="0.00" departDelay="1.19" arrival="167.00" arrivalLane="53i_0" arrivalPos="10.00" arrivalSpeed="20.38" duration="48.00" routeLength="596.93" waitingTime="0.00" waitingCount="0" stopTime="0.00" timeLoss="18.28" rerouteNo="0" devices="tripinfo_99" vType="DEFAULT_VEHTYPE" speedFactor="1.10" vaporized=""/>
    <tripinfo id="50" depart="59.00" departLane="51o_0" departPos="5.10" departSpeed="0.00" departDelay="-0.50" arrival="170.00" arrivalLane="54i_0" arrivalPos="10.00" arrivalSpeed="15.98" duration="111.00" routeLength="617.75" waitingTime="57.00" waitingCount="1" stopTime="0.00" timeLoss="72.68" rerouteNo="0" devices="tripinfo_50" vType="DEFAULT_VEHTYPE" speedFactor="0.85" vaporized=""/>
    <tripinfo id="103" depart="122.00" departLane="51o_0" departPos="5.10" departSpeed="0.00" departDelay="-0.57" arrival="171.00" arrivalLane="53i_0" arrivalPos="10.00" arrivalSpeed="18.15" duration="49.00" routeLength="596.93" waitingTime="0.00" waitingCount="0" stopTime="0.00" timeLoss="15.84" rerouteNo="0" devices="tripinfo_103" vType="DEFAULT_VEHTYPE" speedFactor="0.95" vaporized=""/>
    <tripinfo id="69" depart="82.00" departLane="51o_0" departPos="5.10" departSpeed="0.00" departDelay="-0.11" arrival="172.00" arrivalLane="54i_0" arrivalPos="10.00" arrivalSpeed="18.82" duration="90.00" routeLength="617.75" waitingTime="37.00" waitingCount="1" stopTime="0.00" timeLoss="57.42" rerouteNo="0" devices="tripinfo_69" vType="DEFAULT_VEHTYPE" speedFactor="1.02" vaporized=""/>
    <tripinfo id="108" depart="130.00" departLane="51o_0" departPos="5.10" departSpeed="0.00" departDelay="1.48" arrival="173.00" arrivalLane="53i_0" arrivalPos="10.00" arrivalSpeed="20.28" duration="43.00" routeLength="596.93" waitingTime="0.00" waitingCount="0" stopTime="0.00" timeLoss="12.25" rerouteNo="0" devices="tripinfo_108" vType="DEFAULT_VEHTYPE" speedFactor="1.06" vaporized=""/>
    <tripinfo id="116" depart="138.00" departLane="51o_0" departPos="5.10" departSpeed="0.00" departDelay="-0.04" arrival="173.00" arrivalLane="52i_1" arrivalPos="10.00" arrivalSpeed="22.66" duration="35.00" routeLength="615.10" waitingTime="0.00" waitingCount="0" stopTime="0.00" timeLoss="7.57" rerouteNo="0" devices="tripinfo_116" vType="DEFAULT_VEHTYPE" speedFactor="1.18" vaporized=""/>
    <tripinfo id="70" depart="85.00" departLane="51o_0" departPos="5.10" departSpeed="0.00" departDelay="1.70" arrival="174.00" arrivalLane="54i_0" arrivalPos="10.00" arrivalSpeed="19.61" duration="89.00" routeLength="617.75" waitingTime="36.00" waitingCount="1" stopTime="0.00" timeLoss="56.04" rerouteNo="0" devices="tripinfo_70" vType="DEFAULT_VEHTYPE" speedFactor="1.02" vaporized=""/>
    <tripinfo id="74" depart="88.00" departLane="51o_0" departPos="5.10" departSpeed="0.00" departDelay="-0.06" arrival="177.00" arrivalLane="54i_0" arrivalPos="10.00" arrivalSpeed="17.74" duration="89.00" routeLength="617.75" waitingTime="34.00" waitingCount="1" stopTime="0.00" timeLoss="53.84" rerouteNo="0" devices="tripinfo_74" vType="DEFAULT_VEHTYPE" speedFactor="0.96" vaporized=""/>
    <tripinfo id="76" depart="91.00" departLane="51o_0" departPos="5.10" departSpeed="0.00" departDelay="0.56" arrival="178.00" arrivalLane="54i_0" arrivalPos="10.00" arrivalSpeed="19.02" duration="87.00" routeLength="617.75" waitingTime="33.00" waitingCount="1" stopTime="0.00" timeLoss="54.84" rerouteNo="0" devices="tripinfo_76" vType="DEFAULT_VEHTYPE" speedFactor="1.03" vaporized=""/>
    <tripinfo id="97" depart="116.00" departLane="51o_0" departPos="5.10" departSpeed="0.00" departDelay="0.57" arrival="183.00" arrivalLane="54i_0" arrivalPos="10.00" arrivalSpeed="17.15" duration="67.00" routeLength="617.75" waitingTime="9.00" waitingCount="1" stopTime="0.00" timeLoss="29.93" rerouteNo="0" devices="tripinfo_97" vType="DEFAULT_VEHTYPE" speedFactor="0.91" vaporized=""/>
    <tripinfo id="106" depart="126.00" departLane="51o_0" departPos="5.10" departSpeed="0.00" departDelay="-0.14" arrival="184.00" arrivalLane="54i_0" arrivalPos="10.00" arrivalSpeed="18.62" duration="58.00" routeLength="617.75" waitingTime="1.00" waitingCount="1" stopTime="0.00" timeLoss="25.34" rerouteNo="0" devices="tripinfo_106" vType="DEFAULT_VEHTYPE" speedFactor="1.01" vaporized=""/>
    <tripinfo id="122" depart="145.00" departLane="51o_0" departPos="5.10" departSpeed="0.00" departDelay="-0.18" arrival="185.00" arrivalLane="53i_0" arrivalPos="10.00" arrivalSpeed="19.62" duration="40.00" routeLength="596.93" waitingTime="0.00" waitingCount="0" stopTime="0.00" timeLoss="8.79" rerouteNo="0" devices="tripinfo_122" vType="DEFAULT_VEHTYPE" speedFactor="1.03" vaporized=""/>
    <tripinfo id="107" depart="128.00" departLane="51o_0" departPos="5.10" departSpeed="0.00" departDelay="0.67" arrival="186.00" arrivalLane="54i_0" arrivalPos="10.00" arrivalSpeed="20.11" duration="58.00" routeLength="617.75" waitingTime="0.00" waitingCount="0" stopTime="0.00" timeLoss="25.73" rerouteNo="0" devices="tripinfo_107" vType="DEFAULT_VEHTYPE" speedFactor="1.03" vaporized=""/>
    <tripinfo id="125" depart="148.00" departLane="51o_0" departPos="5.10" departSpeed="0.00" departDelay="-0.75" arrival="186.00" arrivalLane="53i_0" arrivalPos="10.00" arrivalSpeed="22.28" duration="38.00" routeLength="596.93" waitingTime="0.00" waitingCount="0" stopTime="0.00" timeLoss="10.53" rerouteNo="0" devices="tripinfo_125" vType="DEFAULT_VEHTYPE" speedFactor="1.15" vaporized=""/>
    <tripinfo id="129" depart="154.00" departLane="51o_0" departPos="5.10" departSpeed="0.00" departDelay="0.49" arrival="191.00" arrivalLane="52i_1" arrivalPos="10.00" arrivalSpeed="18.79" duration="37.00" routeLength="615.10" waitingTime="0.00" waitingCount="0" stopTime="0.00" timeLoss="5.59" rerouteNo="0" devices="tripinfo_129" vType="DEFAULT_VEHTYPE" speedFactor="1.01" vaporized=""/>
    <tripinfo id="126" depart="151.00" departLane="51o_0" departPos="5.10" departSpeed="0.00" departDelay="1.06" arrival="192.00" arrivalLane="53i_0" arrivalPos="10.00" arrivalSpeed="19.41" duration="41.00" routeLength="596.93" waitingTime="0.00" waitingCount="0" stopTime="0.00" timeLoss="10.07" rerouteNo="0" devices="tripinfo_126" vType="DEFAULT_VEHTYPE" speedFactor="1.03" vaporized=""/>
    <tripinfo id="135" depart="160.00" departLane="51o_0" departPos="5.10" departSpeed="0.00" departDelay="-0.65" arrival="200.00" arrivalLane="53i_0" arrivalPos="10.00" arrivalSpeed="19.12" duration="40.00" routeLength="596.93" waitingTime="0.00" waitingCount="0" stopTime="0.00" timeLoss="8.58" rerouteNo="0" devices="tripinfo_135" vType="DEFAULT_VEHTYPE" speedFactor="1.01" vaporized=""/>
    <tripinfo id="6" depart="7.00" departLane="54o_0" departPos="5.10" departSpeed="0.00" departDelay="-0.14" arrival="217.00" arrivalLane="53i_0" arrivalPos="10.00" arrivalSpeed="19.55" duration="210.00" routeLength="615.10" waitingTime="166.00" waitingCount="1" stopTime="0.00" timeLoss="179.52" rerouteNo="0" devices="tripinfo_6" vType="DEFAULT_VEHTYPE" speedFactor="1.05" vaporized=""/>
    <tripinfo id="11" depart="15.00" departLane="4i_0" departPos="5.10" departSpeed="0.00" departDelay="1.91" arrival="218.00" arrivalLane="52i_0" arrivalPos="10.00" arrivalSpeed="19.65" duration="203.00" routeLength="607.65" waitingTime="158.00" waitingCount="1" stopTime="0.00" timeLoss="171.12" rerouteNo="0" devices="tripinfo_11" vType="DEFAULT_VEHTYPE" speedFactor="1.03" vaporized=""/>
    <tripinfo id="19" depart="22.00" departLane="54o_0" departPos="5.10" departSpeed="0.00" departDelay="-0.61" arrival="218.00" arrivalLane="53i_2" arrivalPos="10.00" arrivalSpeed="21.83" duration="196.00" routeLength="615.10" waitingTime="154.00" waitingCount="1" stopTime="0.00" timeLoss="168.63" rerouteNo="0" devices="tripinfo_19" vType="DEFAULT_VEHTYPE" speedFactor="1.16" vaporized=""/>
    <tripinfo id="16" depart="19.00" departLane="54o_0" departPos="5.10" departSpeed="0.00" departDelay="-0.04" arrival="220.00" arrivalLane="53i_0" arrivalPos="10.00" arrivalSpeed="16.75" duration="201.00" routeLength="615.10" waitingTime="151.00" waitingCount="1" stopTime="0.00" timeLoss="164.66" rerouteNo="0" devices="tripinfo_16" vType="DEFAULT_VEHTYPE" speedFactor="0.88" vaporized=""/>