<?xml version="1.0" encoding="UTF-8"?>

<!-- generated on Fri Nov  8 01:48:45 2019 by Eclipse SUMO Version 1.2.0
<configuration xmlns:xsi="http://www.w3.org/2001/XMLSchema-instance" xsi:noNamespaceSchemaLocation="http://sumo.dlr.de/xsd/sumoConfiguration.xsd">

    <input>
        <net-file value="simulation_files/sumocfgs/../networks/isolated_3_lanes_4_stages.net.xml"/>
        <route-files value="simulation_files/sumocfgs/../routes/isolated_3_lanes_20p.rou.xml"/>
    </input>

    <output>
        <tripinfo-output value="./output/exp21_rf_20p/delay_pwtl__9_tripinfo_isolated.xml"/>
    </output>

    <time>
        <begin value="0"/>
        <step-length value="1"/>
    </time>

    <report>
        <verbose value="true"/>
        <no-step-log value="true"/>
    </report>

    <gui_only>
        <tracker-interval value="1"/>
    </gui_only>

</configuration>
-->

<tripinfos xmlns:xsi="http://www.w3.org/2001/XMLSchema-instance" xsi:noNamespaceSchemaLocation="http://sumo.dlr.de/xsd/tripinfo_file.xsd">
    <tripinfo id="2" depart="7.00" departLane="52o_0" departPos="5.10" departSpeed="0.00" departDelay="-0.14" arrival="48.00" arrivalLane="54i_0" arrivalPos="10.00" arrivalSpeed="19.14" duration="41.00" routeLength="596.93" waitingTime="0.00" waitingCount="0" stopTime="0.00" timeLoss="9.18" rerouteNo="0" devices="tripinfo_2" vType="DEFAULT_VEHTYPE" speedFactor="1.01" vaporized=""/>
    <tripinfo id="6" depart="21.00" departLane="52o_0" departPos="5.10" departSpeed="0.00" departDelay="-0.42" arrival="57.00" arrivalLane="51i_0" arrivalPos="10.00" arrivalSpeed="19.72" duration="36.00" routeLength="615.10" waitingTime="0.00" waitingCount="0" stopTime="0.00" timeLoss="5.27" rerouteNo="0" devices="tripinfo_6" vType="DEFAULT_VEHTYPE" speedFactor="1.05" vaporized=""/>
    <tripinfo id="5" depart="17.00" departLane="52o_0" departPos="5.10" departSpeed="0.00" departDelay="-0.85" arrival="64.00" arrivalLane="53i_0" arrivalPos="10.00" arrivalSpeed="15.40" duration="47.00" routeLength="617.75" waitingTime="0.00" waitingCount="0" stopTime="0.00" timeLoss="6.72" rerouteNo="0" devices="tripinfo_5" vType="DEFAULT_VEHTYPE" speedFactor="0.83" vaporized=""/>
    <tripinfo id="7" depart="24.00" departLane="52o_0" departPos="5.10" departSpeed="0.00" departDelay="-0.99" arrival="66.00" arrivalLane="51i_0" arrivalPos="10.00" arrivalSpeed="16.20" duration="42.00" routeLength="615.10" waitingTime="0.00" waitingCount="0" stopTime="0.00" timeLoss="5.58" rerouteNo="0" devices="tripinfo_7" vType="DEFAULT_VEHTYPE" speedFactor="0.89" vaporized=""/>
    <tripinfo id="8" depart="28.00" departLane="52o_0" departPos="5.10" departSpeed="0.00" departDelay="-0.56" arrival="67.00" arrivalLane="51i_0" arrivalPos="10.00" arrivalSpeed="17.67" duration="39.00" routeLength="615.10" waitingTime="0.00" waitingCount="0" stopTime="0.00" timeLoss="5.05" rerouteNo="0" devices="tripinfo_8" vType="DEFAULT_VEHTYPE" speedFactor="0.94" vaporized=""/>
    <tripinfo id="11" depart="39.00" departLane="52o_0" departPos="5.10" departSpeed="0.00" departDelay="-0.27" arrival="80.00" arrivalLane="53i_0" arrivalPos="10.00" arrivalSpeed="19.90" duration="41.00" routeLength="617.75" waitingTime="0.00" waitingCount="0" stopTime="0.00" timeLoss="8.14" rerouteNo="0" devices="tripinfo_11" vType="DEFAULT_VEHTYPE" speedFactor="1.03" vaporized=""/>
    <tripinfo id="14" depart="49.00" departLane="52o_0" departPos="5.10" departSpeed="0.00" departDelay="-0.98" arrival="91.00" arrivalLane="53i_0" arrivalPos="10.00" arrivalSpeed="18.01" duration="42.00" routeLength="617.75" waitingTime="0.00" waitingCount="0" stopTime="0.00" timeLoss="8.44" rerouteNo="0" devices="tripinfo_14" vType="DEFAULT_VEHTYPE" speedFactor="0.99" vaporized=""/>
    <tripinfo id="19" depart="67.00" departLane="52o_0" departPos="5.10" departSpeed="0.00" departDelay="-0.83" arrival="101.00" arrivalLane="51i_0" arrivalPos="10.00" arrivalSpeed="22.10" duration="34.00" routeLength="615.10" waitingTime="0.00" waitingCount="0" stopTime="0.00" timeLoss="6.37" rerouteNo="0" devices="tripinfo_19" vType="DEFAULT_VEHTYPE" speedFactor="1.16" vaporized=""/>
    <tripinfo id="16" depart="57.00" departLane="52o_0" departPos="5.10" departSpeed="0.00" departDelay="-0.12" arrival="102.00" arrivalLane="53i_0" arrivalPos="10.00" arrivalSpeed="16.64" duration="45.00" routeLength="617.75" waitingTime="0.00" waitingCount="0" stopTime="0.00" timeLoss="7.54" rerouteNo="0" devices="tripinfo_16" vType="DEFAULT_VEHTYPE" speedFactor="0.88" vaporized=""/>
    <tripinfo id="18" depart="64.00" departLane="52o_0" departPos="5.10" departSpeed="0.00" departDelay="-0.26" arrival="108.00" arrivalLane="53i_0" arrivalPos="10.00" arrivalSpeed="17.02" duration="44.00" routeLength="617.75" waitingTime="0.00" waitingCount="0" stopTime="0.00" timeLoss="8.33" rerouteNo="0" devices="tripinfo_18" vType="DEFAULT_VEHTYPE" speedFactor="0.94" vaporized=""/>
    <tripinfo id="22" depart="78.00" departLane="52o_0" departPos="5.10" departSpeed="0.00" departDelay="-0.54" arrival="120.00" arrivalLane="53i_0" arrivalPos="10.00" arrivalSpeed="18.85" duration="42.00" routeLength="617.75" waitingTime="0.00" waitingCount="0" stopTime="0.00" timeLoss="8.03" rerouteNo="0" devices="tripinfo_22" vType="DEFAULT_VEHTYPE" speedFactor="0.98" vaporized=""/>
    <tripinfo id="27" depart="96.00" departLane="52o_0" departPos="5.10" departSpeed="0.00" departDelay="-0.39" arrival="135.00" arrivalLane="51i_0" arrivalPos="10.00" arrivalSpeed="18.22" duration="39.00" routeLength="615.10" waitingTime="0.00" waitingCount="0" stopTime="0.00" timeLoss="5.01" rerouteNo="0" devices="tripinfo_27" vType="DEFAULT_VEHTYPE" speedFactor="0.95" vaporized=""/>
    <tripinfo id="12" depart="42.00" departLane="53o_0" departPos="5.10" departSpeed="0.00" departDelay="-0.84" arrival="150.00" arrivalLane="54i_1" arrivalPos="10.00" arrivalSpeed="19.90" duration="108.00" routeLength="615.10" waitingTime="64.00" waitingCount="1" stopTime="0.00" timeLoss="77.78" rerouteNo="0" devices="tripinfo_12" vType="DEFAULT_VEHTYPE" speedFactor="1.05" vaporized=""/>
    <tripinfo id="0" depart="0.00" departLane="53o_0" departPos="5.10" departSpeed="0.00" departDelay="0.00" arrival="151.00" arrivalLane="52i_0" arrivalPos="10.00" arrivalSpeed="19.38" duration="151.00" routeLength="596.93" waitingTime="107.00" waitingCount="1" stopTime="0.00" timeLoss="120.38" rerouteNo="0" devices="tripinfo_0" vType="DEFAULT_VEHTYPE" speedFactor="1.06" vaporized=""/>
    <tripinfo id="15" depart="53.00" departLane="53o_0" departPos="5.10" departSpeed="0.00" departDelay="-0.55" arrival="153.00" arrivalLane="54i_1" arrivalPos="10.00" arrivalSpeed="17.31" duration="100.00" routeLength="615.10" waitingTime="51.00" waitingCount="1" stopTime="0.00" timeLoss="65.01" rerouteNo="0" devices="tripinfo_15" vType="DEFAULT_VEHTYPE" speedFactor="0.93" vaporized=""/>
    <tripinfo id="32" depart="114.00" departLane="53o_0" departPos="5.10" departSpeed="0.00" departDelay="-0.24" arrival="153.00" arrivalLane="54i_2" arrivalPos="10.00" arrivalSpeed="19.46" duration="39.00" routeLength="615.10" waitingTime="0.00" waitingCount="0" stopTime="0.00" timeLoss="7.09" rerouteNo="0" devices="tripinfo_32" vType="DEFAULT_VEHTYPE" speedFactor="1.01" vaporized=""/>
    <tripinfo id="17" depart="60.00" departLane="53o_0" departPos="5.10" departSpeed="0.00" departDelay="-0.69" arrival="154.00" arrivalLane="52i_0" arrivalPos="10.00" arrivalSpeed="17.03" duration="94.00" routeLength="596.93" waitingTime="47.00" waitingCount="1" stopTime="0.00" timeLoss="60.26" rerouteNo="0" devices="tripinfo_17" vType="DEFAULT_VEHTYPE" speedFactor="0.94" vaporized=""/>
    <tripinfo id="31" depart="110.00" departLane="53o_0" departPos="5.10" departSpeed="0.00" departDelay="-0.67" arrival="155.00" arrivalLane="52i_0" arrivalPos="10.00" arrivalSpeed="20.55" duration="45.00" routeLength="596.93" waitingTime="0.00" waitingCount="0" stopTime="0.00" timeLoss="17.31" rerouteNo="0" devices="tripinfo_31" vType="DEFAULT_VEHTYPE" speedFactor="1.15" vaporized=""/>
    <tripinfo id="24" depart="85.00" departLane="53o_0" departPos="5.10" departSpeed="0.00" departDelay="-0.68" arrival="156.00" arrivalLane="54i_1" arrivalPos="10.00" arrivalSpeed="15.79" duration="71.00" routeLength="615.10" waitingTime="20.00" waitingCount="1" stopTime="0.00" timeLoss="31.93" rerouteNo="0" devices="tripinfo_24" vType="DEFAULT_VEHTYPE" speedFactor="0.83" vaporized=""/>
    <tripinfo id="34" depart="121.00" departLane="53o_0" departPos="5.10" departSpeed="0.00" departDelay="-0.38" arrival="159.00" arrivalLane="54i_1" arrivalPos="10.00" arrivalSpeed="18.07" duration="38.00" routeLength="615.10" waitingTime="0.00" waitingCount="0" stopTime="0.00" timeLoss="5.40" rerouteNo="0" devices="tripinfo_34" vType="DEFAULT_VEHTYPE" speedFactor="0.99" vaporized=""/>
    <tripinfo id="35" depart="124.00" departLane="53o_0" departPos="5.10" departSpeed="0.00" departDelay="-0.95" arrival="161.00" arrivalLane="54i_0" arrivalPos="10.00" arrivalSpeed="18.69" duration="37.00" routeLength="615.10" waitingTime="0.00" waitingCount="0" stopTime="0.00" timeLoss="5.79" rerouteNo="0" devices="tripinfo_35" vType="DEFAULT_VEHTYPE" speedFactor="1.02" vaporized=""/>
    <tripinfo id="39" depart="139.00" departLane="53o_0" departPos="5.10" departSpeed="0.00" departDelay="-0.23" arrival="182.00" arrivalLane="52i_0" arrivalPos="10.00" arrivalSpeed="16.35" duration="43.00" routeLength="596.93" waitingTime="0.00" waitingCount="0" stopTime="0.00" timeLoss="7.87" rerouteNo="0" devices="tripinfo_39" vType="DEFAULT_VEHTYPE" speedFactor="0.90" vaporized=""/>
    <tripinfo id="45" depart="160.00" departLane="51o_0" departPos="5.10" departSpeed="0.00" departDelay="-0.65" arrival="212.00" arrivalLane="52i_1" arrivalPos="10.00" arrivalSpeed="21.11" duration="52.00" routeLength="615.10" waitingTime="8.00" waitingCount="1" stopTime="0.00" timeLoss="22.12" rerouteNo="0" devices="tripinfo_45" vType="DEFAULT_VEHTYPE" speedFactor="1.09" vaporized=""/>
    <tripinfo id="1" depart="3.00" departLane="51o_0" departPos="5.10" departSpeed="0.00" departDelay="-0.57" arrival="213.00" arrivalLane="53i_0" arrivalPos="10.00" arrivalSpeed="17.29" duration="210.00" routeLength="596.93" waitingTime="163.00" waitingCount="1" stopTime="0.00" timeLoss="175.90" rerouteNo="0" devices="tripinfo_1" vType="DEFAULT_VEHTYPE" speedFactor="0.94" vaporized=""/>
    <tripinfo id="13" depart="46.00" departLane="51o_0" departPos="5.10" departSpeed="0.00" departDelay="-0.41" arrival="214.00" arrivalLane="53i_0" arrivalPos="10.00" arrivalSpeed="20.37" duration="168.00" routeLength="596.93" waitingTime="124.00" waitingCount="1" stopTime="0.00" timeLoss="139.41" rerouteNo="0" devices="tripinfo_13" vType="DEFAULT_VEHTYPE" speedFactor="1.12" vaporized=""/>
    <tripinfo id="9" depart="32.00" departLane="51o_0" departPos="5.10" departSpeed="0.00" departDelay="-0.13" arrival="217.00" arrivalLane="54i_0" arrivalPos="10.00" arrivalSpeed="15.67" duration="185.00" routeLength="617.75" waitingTime="133.00" waitingCount="1" stopTime="0.00" timeLoss="145.99" rerouteNo="0" devices="tripinfo_9" vType="DEFAULT_VEHTYPE" speedFactor="0.86" vaporized=""/>
    <tripinfo id="21" depart="74.00" departLane="51o_0" departPos="5.10" departSpeed="0.00" departDelay="-0.97" arrival="218.00" arrivalLane="53i_0" arrivalPos="10.00" arrivalSpeed="18.40" duration="144.00" routeLength="596.93" waitingTime="98.00" waitingCount="1" stopTime="0.00" timeLoss="112.37" rerouteNo="0" devices="tripinfo_21" vType="DEFAULT_VEHTYPE" speedFactor="1.01" vaporized=""/>
    <tripinfo id="25" depart="89.00" departLane="51o_0" departPos="5.10" departSpeed="0.00" departDelay="-0.25" arrival="218.00" arrivalLane="54i_0" arrivalPos="10.00" arrivalSpeed="16.37" duration="129.00" routeLength="617.75" waitingTime="79.00" waitingCount="1" stopTime="0.00" timeLoss="91.34" rerouteNo="0" devices="tripinfo_25" vType="DEFAULT_VEHTYPE" speedFactor="0.87" vaporized=""/>
    <tripinfo id="23" depart="82.00" departLane="51o_0" departPos="5.10" departSpeed="0.00" departDelay="-0.11" arrival="222.00" arrivalLane="53i_0" arrivalPos="10.00" arrivalSpeed="16.62" duration="140.00" routeLength="596.93" waitingTime="88.00" waitingCount="1" stopTime="0.00" timeLoss="104.80" rerouteNo="0" devices="tripinfo_23" vType="DEFAULT_VEHTYPE" speedFactor="0.89" vaporized=""/>
    <tripinfo id="26" depart="92.00" departLane="51o_0" departPos="5.10" departSpeed="0.00" departDelay="-0.82" arrival="225.00" arrivalLane="53i_0" arrivalPos="10.00" arrivalSpeed="17.41" duration="133.00" routeLength="596.93" waitingTime="79.00" waitingCount="1" stopTime="0.00" timeLoss="97.58" rerouteNo="0" devices="tripinfo_26" vType="DEFAULT_VEHTYPE" speedFactor="0.92" vaporized=""/>
    <tripinfo id="41" depart="146.00" departLane="51o_0" departPos="5.10" departSpeed="0.00" departDelay="-0.37" arrival="227.00" arrivalLane="53i_0" arrivalPos="10.00" arrivalSpeed="18.18" duration="81.00" routeLength="596.93" waitingTime="29.00" waitingCount="1" stopTime="0.00" timeLoss="46.71" rerouteNo="0" devices="tripinfo_41" vType="DEFAULT_VEHTYPE" speedFactor="0.96" vaporized=""/>
    <tripinfo id="57" depart="203.00" departLane="51o_0" departPos="5.10" departSpeed="0.00" departDelay="-0.49" arrival="241.00" arrivalLane="53i_0" arrivalPos="10.00" arrivalSpeed="21.55" duration="38.00" routeLength="596.93" waitingTime="0.00" waitingCount="0" stopTime="0.00" timeLoss="9.55" rerouteNo="0" devices="tripinfo_57" vType="DEFAULT_VEHTYPE" speedFactor="1.14" vaporized=""/>
    <tripinfo id="59" depart="210.00" departLane="51o_0" departPos="5.10" departSpeed="0.00" departDelay="-0.63" arrival="251.00" arrivalLane="53i_0" arrivalPos="10.00" arrivalSpeed="18.02" duration="41.00" routeLength="596.93" waitingTime="0.00" waitingCount="0" stopTime="0.00" timeLoss="8.42" rerouteNo="0" devices="tripinfo_59" vType="DEFAULT_VEHTYPE" speedFactor="0.97" vaporized=""/>
    <tripinfo id="63" depart="224.00" departLane="51o_0" departPos="5.10" departSpeed="0.00" departDelay="-0.91" arrival="266.00" arrivalLane="54i_0" arrivalPos="10.00" arrivalSpeed="18.94" duration="42.00" routeLength="617.75" waitingTime="0.00" waitingCount="0" stopTime="0.00" timeLoss="7.75" rerouteNo="0" devices="tripinfo_63" vType="DEFAULT_VEHTYPE" speedFactor="0.99" vaporized=""/>
    <tripinfo id="64" depart="228.00" departLane="51o_0" departPos="5.10" departSpeed="0.00" departDelay="-0.48" arrival="271.00" arrivalLane="53i_0" arrivalPos="10.00" arrivalSpeed="17.48" duration="43.00" routeLength="596.93" waitingTime="0.00" waitingCount="0" stopTime="0.00" timeLoss="9.51" rerouteNo="0" devices="tripinfo_64" vType="DEFAULT_VEHTYPE" speedFactor="0.94" vaporized=""/>
    <tripinfo id="65" depart="232.00" departLane="51o_0" departPos="5.10" departSpeed="0.00" departDelay="-0.05" arrival="276.00" arrivalLane="54i_0" arrivalPos="10.00" arrivalSpeed="16.82" duration="44.00" routeLength="617.75" waitingTime="0.00" waitingCount="0" stopTime="0.00" timeLoss="6.26" rerouteNo="0" devices="tripinfo_65" vType="DEFAULT_VEHTYPE" speedFactor="0.88" vaporized=""/>
    <tripinfo id="66" depart="235.00" departLane="51o_0" departPos="5.10" departSpeed="0.00" departDelay="-0.62" arrival="276.00" arrivalLane="52i_0" arrivalPos="10.00" arrivalSpeed="17.01" duration="41.00" routeLength="615.10" waitingTime="0.00" waitingCount="0" stopTime="0.00" timeLoss="5.46" rerouteNo="0" devices="tripinfo_66" vType="DEFAULT_VEHTYPE" speedFactor="0.91" vaporized=""/>
    <tripinfo id="67" depart="239.00" departLane="51o_0" departPos="5.10" departSpeed="0.00" departDelay="-0.19" arrival="282.00" arrivalLane="3o_0" arrivalPos="286.40" arrivalSpeed="17.29" duration="43.00" routeLength="586.83" waitingTime="0.00" waitingCount="0" stopTime="0.00" timeLoss="8.89" rerouteNo="0" devices="tripinfo_67" vType="DEFAULT_VEHTYPE" speedFactor="0.91" vaporized=""/>
    <tripinfo id="3" depart="10.00" departLane="54o_0" departPos="5.10" departSpeed="0.00" departDelay="-0.71" arrival="292.00" arrivalLane="53i_0" arrivalPos="10.00" arrivalSpeed="19.99" duration="282.00" routeLength="615.10" waitingTime="238.00" waitingCount="1" stopTime="0.00" timeLoss="252.42" rerouteNo="0" devices="tripinfo_3" vType="DEFAULT_VEHTYPE" speedFactor="1.08" vaporized=""/>
    <tripinfo id="4" depart="14.00" departLane="54o_0" departPos="5.10" departSpeed="0.00" departDelay="-0.28" arrival="293.00" arrivalLane="52i_0" arrivalPos="10.00" arrivalSpeed="19.68" duration="279.00" routeLength="617.75" waitingTime="234.00" waitingCount="1" stopTime="0.00" timeLoss="246.83" rerouteNo="0" devices="tripinfo_4" vType="DEFAULT_VEHTYPE" speedFactor="1.03" vaporized=""/>
    <tripinfo id="20" depart="71.00" departLane="54o_0" departPos="5.10" departSpeed="0.00" departDelay="-0.40" arrival="293.00" arrivalLane="53i_1" arrivalPos="10.00" arrivalSpeed="19.34" duration="222.00" routeLength="615.10" waitingTime="177.00" waitingCount="1" stopTime="0.00" timeLoss="190.36" rerouteNo="0" devices="tripinfo_20" vType="DEFAULT_VEHTYPE" speedFactor="1.02" vaporized=""/>
    <tripinfo id="28" depart="99.00" departLane="54o_0" departPos="5.10" departSpeed="0.00" departDelay="-0.96" arrival="294.00" arrivalLane="51i_0" arrivalPos="10.00" arrivalSpeed="21.86" duration="195.00" routeLength="596.93" waitingTime="151.00" waitingCount="1" stopTime="0.00" timeLoss="166.73" rerouteNo="0" devices="tripinfo_28" vType="DEFAULT_VEHTYPE" speedFactor="1.13" vaporized=""/>
    <tripinfo id="33" depart="117.00" departLane="54o_0" departPos="5.10" departSpeed="0.00" departDelay="-0.81" arrival="295.00" arrivalLane="51i_0" arrivalPos="10.00" arrivalSpeed="21.62" duration="178.00" routeLength="596.93" waitingTime="136.00" waitingCount="1" stopTime="0.00" timeLoss="151.19" rerouteNo="0" devices="tripinfo_33" vType="DEFAULT_VEHTYPE" speedFactor="1.17" vaporized=""/>
    <tripinfo id="10" depart="35.00" departLane="54o_0" departPos="5.10" departSpeed="0.00" departDelay="-0.70" arrival="296.00" arrivalLane="52i_0" arrivalPos="10.00" arrivalSpeed="20.53" duration="261.00" routeLength="617.75" waitingTime="216.00" waitingCount="1" stopTime="0.00" timeLoss="230.49" rerouteNo="0" devices="tripinfo_10" vType="DEFAULT_VEHTYPE" speedFactor="1.09" vaporized=""/>
    <tripinfo id="29" depart="103.00" departLane="54o_0" departPos="5.10" departSpeed="0.00" departDelay="-0.53" arrival="296.00" arrivalLane="53i_1" arrivalPos="10.00" arrivalSpeed="16.82" duration="193.00" routeLength="615.10" waitingTime="143.00" waitingCount="1" stopTime="0.00" timeLoss="158.85" rerouteNo="0" devices="tripinfo_29" vType="DEFAULT_VEHTYPE" speedFactor="0.93" vaporized=""/>
    <tripinfo id="44" depart="157.00" departLane="54o_0" departPos="5.10" departSpeed="0.00" departDelay="-0.08" arrival="297.00" arrivalLane="53i_2" arrivalPos="10.00" arrivalSpeed="20.23" duration="140.00" routeLength="615.10" waitingTime="94.00" waitingCount="1" stopTime="0.00" timeLoss="109.28" rerouteNo="0" devices="tripinfo_44" vType="DEFAULT_VEHTYPE" speedFactor="1.04" vaporized=""/>
    <tripinfo id="56" depart="199.00" departLane="54o_0" departPos="5.10" departSpeed="0.00" departDelay="-0.92" arrival="298.00" arrivalLane="53i_1" arrivalPos="10.00" arrivalSpeed="16.59" duration="99.00" routeLength="615.10" waitingTime="48.00" waitingCount="1" stopTime="0.00" timeLoss="63.73" rerouteNo="0" devices="tripinfo_56" vType="DEFAULT_VEHTYPE" speedFactor="0.90" vaporized=""/>
    <tripinfo id="42" depart="149.00" departLane="54o_0" departPos="5.10" departSpeed="0.00" departDelay="-0.94" arrival="299.00" arrivalLane="51i_0" arrivalPos="10.00" arrivalSpeed="21.05" duration="150.00" routeLength="596.93" waitingTime="104.00" waitingCount="1" stopTime="0.00" timeLoss="120.08" rerouteNo="0" devices="tripinfo_42" vType="DEFAULT_VEHTYPE" speedFactor="1.09" vaporized=""/>
    <tripinfo id="58" depart="207.00" departLane="54o_0" departPos="5.10" departSpeed="0.00" departDelay="-0.06" arrival="300.00" arrivalLane="53i_1" arrivalPos="10.00" arrivalSpeed="18.71" duration="93.00" routeLength="615.10" waitingTime="41.00" waitingCount="1" stopTime="0.00" timeLoss="61.41" rerouteNo="0" devices="tripinfo_58" vType="DEFAULT_VEHTYPE" speedFactor="1.02" vaporized=""/>
    <tripinfo id="47" depart="167.00" departLane="54o_0" departPos="5.10" departSpeed="0.00" departDelay="-0.79" arrival="302.00" arrivalLane="52i_0" arrivalPos="10.00" arrivalSpeed="17.13" duration="135.00" routeLength="617.75" waitingTime="83.00" waitingCount="1" stopTime="0.00" timeLoss="98.02" rerouteNo="0" devices="tripinfo_47" vType="DEFAULT_VEHTYPE" speedFactor="0.90" vaporized=""/>
    <tripinfo id="50" depart="178.00" departLane="54o_0" departPos="5.10" departSpeed="0.00" departDelay="-0.50" arrival="305.00" arrivalLane="52i_0" arrivalPos="10.00" arrivalSpeed="15.92" duration="127.00" routeLength="617.75" waitingTime="75.00" waitingCount="1" stopTime="0.00" timeLoss="88.63" rerouteNo="0" devices="tripinfo_50" vType="DEFAULT_VEHTYPE" speedFactor="0.85" vaporized=""/>
    <tripinfo id="68" depart="242.00" departLane="54o_0" departPos="5.10" departSpeed="0.00" departDelay="-0.76" arrival="307.00" arrivalLane="52i_0" arrivalPos="10.00" arrivalSpeed="19.00" duration="65.00" routeLength="617.75" waitingTime="14.00" waitingCount="1" stopTime="0.00" timeLoss="32.89" rerouteNo="0" devices="tripinfo_68" vType="DEFAULT_VEHTYPE" speedFactor="1.04" vaporized=""/>
    <tripinfo id="73" depart="260.00" departLane="54o_0" departPos="5.10" departSpeed="0.00" departDelay="-0.61" arrival="308.00" arrivalLane="52i_0" arrivalPos="10.00" arrivalSpeed="20.40" duration="48.00" routeLength="617.75" waitingTime="0.00" waitingCount="0" stopTime="0.00" timeLoss="16.71" rerouteNo="0" devices="tripinfo_73" vType="DEFAULT_VEHTYPE" speedFactor="1.06" vaporized=""/>
    <tripinfo id="75" depart="267.00" departLane="54o_0" departPos="5.10" departSpeed="0.00" departDelay="-0.75" arrival="308.00" arrivalLane="51i_0" arrivalPos="10.00" arrivalSpeed="17.96" duration="41.00" routeLength="596.93" waitingTime="0.00" waitingCount="0" stopTime="0.00" timeLoss="8.90" rerouteNo="0" devices="tripinfo_75" vType="DEFAULT_VEHTYPE" speedFactor="0.98" vaporized=""/>
    <tripinfo id="78" depart="278.00" departLane="54o_0" departPos="5.10" departSpeed="0.00" departDelay="-0.46" arrival="315.00" arrivalLane="53i_0" arrivalPos="10.00" arrivalSpeed="18.68" duration="37.00" routeLength="615.10" waitingTime="0.00" waitingCount="0" stopTime="0.00" timeLoss="5.28" rerouteNo="0" devices="tripinfo_78" vType="DEFAULT_VEHTYPE" speedFactor="1.01" vaporized=""/>
    <tripinfo id="79" depart="282.00" departLane="54o_0" departPos="5.10" departSpeed="0.00" departDelay="-0.03" arrival="321.00" arrivalLane="51i_0" arrivalPos="10.00" arrivalSpeed="20.10" duration="39.00" routeLength="596.93" waitingTime="0.00" waitingCount="0" stopTime="0.00" timeLoss="9.45" rerouteNo="0" devices="tripinfo_79" vType="DEFAULT_VEHTYPE" speedFactor="1.09" vaporized=""/>
    <tripinfo id="84" depart="299.00" departLane="54o_0" departPos="5.10" departSpeed="0.00" departDelay="-0.88" arrival="337.00" arrivalLane="51i_0" arrivalPos="10.00" arrivalSpeed="22.25" duration="38.00" routeLength="596.93" waitingTime="0.00" waitingCount="0" stopTime="0.00" timeLoss="10.60" rerouteNo="0" devices="tripinfo_84" vType="DEFAULT_VEHTYPE" speedFactor="1.15" vaporized=""/>
    <tripinfo id="86" depart="307.00" departLane="54o_0" departPos="5.10" departSpeed="0.00" departDelay="-0.02" arrival="348.00" arrivalLane="51i_0" arrivalPos="10.00" arrivalSpeed="19.23" duration="41.00" routeLength="596.93" waitingTime="0.00" waitingCount="0" stopTime="0.00" timeLoss="8.95" rerouteNo="0" devices="tripinfo_86" vType="DEFAULT_VEHTYPE" speedFactor="1.00" vaporized=""/>
    <tripinfo id="89" depart="317.00" departLane="54o_0" departPos="5.10" departSpeed="0.00" departDelay="-0.73" arrival="357.00" arrivalLane="52i_0" arrivalPos="10.00" arrivalSpeed="19.54" duration="40.00" routeLength="617.75" waitingTime="0.00" waitingCount="0" stopTime="0.00" timeLoss="7.89" rerouteNo="0" devices="tripinfo_89" vType="DEFAULT_VEHTYPE" speedFactor="1.02" vaporized=""/>
    <tripinfo id="94" depart="335.00" departLane="54o_0" departPos="5.10" departSpeed="0.00" departDelay="-0.58" arrival="373.00" arrivalLane="52i_0" arrivalPos="10.00" arrivalSpeed="19.93" duration="38.00" routeLength="617.75" waitingTime="0.00" waitingCount="0" stopTime="0.00" timeLoss="7.17" rerouteNo="0" devices="tripinfo_94" vType="DEFAULT_VEHTYPE" speedFactor="1.09" vaporized=""/>
    <tripinfo id="30" depart="107.00" departLane="52o_0" departPos="5.10" departSpeed="0.00" departDelay="-0.10" arrival="380.00" arrivalLane="54i_0" arrivalPos="10.00" arrivalSpeed="22.14" duration="273.00" routeLength="596.93" waitingTime="233.00" waitingCount="1" stopTime="0.00" timeLoss="245.62" rerouteNo="0" devices="tripinfo_30" vType="DEFAULT_VEHTYPE" speedFactor="1.18" vaporized=""/>
    <tripinfo id="46" depart="164.00" departLane="52o_0" departPos="5.10" departSpeed="0.00" departDelay="-0.22" arrival="381.00" arrivalLane="51i_1" arrivalPos="10.00" arrivalSpeed="18.98" duration="217.00" routeLength="615.10" waitingTime="172.00" waitingCount="1" stopTime="0.00" timeLoss="185.28" rerouteNo="0" devices="tripinfo_46" vType="DEFAULT_VEHTYPE" speedFactor="1.00" vaporized=""/>
    <tripinfo id="38" depart="135.00" departLane="52o_0" departPos="5.10" departSpeed="0.00" departDelay="-0.66" arrival="382.00" arrivalLane="53i_0" arrivalPos="10.00" arrivalSpeed="20.27" duration="247.00" routeLength="617.75" waitingTime="202.00" waitingCount="1" stopTime="0.00" timeLoss="216.98" rerouteNo="0" devices="tripinfo_38" vType="DEFAULT_VEHTYPE" speedFactor="1.10" vaporized=""/>
    <tripinfo id="36" depart="128.00" departLane="52o_0" departPos="5.10" departSpeed="0.00" departDelay="-0.52" arrival="385.00" arrivalLane="54i_0" arrivalPos="10.00" arrivalSpeed="18.81" duration="257.00" routeLength="596.93" waitingTime="210.00" waitingCount="1" stopTime="0.00" timeLoss="223.67" rerouteNo="0" devices="tripinfo_36" vType="DEFAULT_VEHTYPE" speedFactor="0.97" vaporized=""/>
    <tripinfo id="48" depart="171.00" departLane="52o_0" departPos="5.10" departSpeed="0.00" departDelay="-0.36" arrival="385.00" arrivalLane="51i_1" arrivalPos="10.00" arrivalSpeed="16.15" duration="214.00" routeLength="615.10" waitingTime="166.00" waitingCount="1" stopTime="0.00" timeLoss="177.81" rerouteNo="0" devices="tripinfo_48" vType="DEFAULT_VEHTYPE" speedFactor="0.88" vaporized=""/>
    <tripinfo id="37" depart="132.00" departLane="52o_0" departPos="5.10" departSpeed="0.00" departDelay="-0.09" arrival="386.00" arrivalLane="54i_0" arrivalPos="10.00" arrivalSpeed="20.42" duration="254.00" routeLength="596.93" waitingTime="207.00" waitingCount="1" stopTime="0.00" timeLoss="227.34" rerouteNo="0" devices="tripinfo_37" vType="DEFAULT_VEHTYPE" speedFactor="1.18" vaporized=""/>
    <tripinfo id="49" depart="174.00" departLane="52o_0" departPos="5.10" departSpeed="0.00" departDelay="-0.93" arrival="386.00" arrivalLane="51i_2" arrivalPos="10.00" arrivalSpeed="15.97" duration="212.00" routeLength="615.10" waitingTime="163.00" waitingCount="1" stopTime="0.00" timeLoss="174.79" rerouteNo="0" devices="tripinfo_49" vType="DEFAULT_VEHTYPE" speedFactor="0.85" vaporized=""/>
    <tripinfo id="53" depart="189.00" departLane="52o_0" departPos="5.10" departSpeed="0.00" departDelay="-0.21" arrival="386.00" arrivalLane="53i_0" arrivalPos="10.00" arrivalSpeed="20.51" duration="197.00" routeLength="617.75" waitingTime="152.00" waitingCount="1" stopTime="0.00" timeLoss="167.06" rerouteNo="0" devices="tripinfo_53" vType="DEFAULT_VEHTYPE" speedFactor="1.10" vaporized=""/>
    <tripinfo id="77" depart="274.00" departLane="52o_0" departPos="5.10" departSpeed="0.00" departDelay="-0.89" arrival="387.00" arrivalLane="51i_1" arrivalPos="10.00" arrivalSpeed="18.22" duration="113.00" routeLength="615.10" waitingTime="63.00" waitingCount="1" stopTime="0.00" timeLoss="80.19" rerouteNo="0" devices="tripinfo_77" vType="DEFAULT_VEHTYPE" speedFactor="0.98" vaporized=""/>
    <tripinfo id="40" depart="142.00" departLane="52o_0" departPos="5.10" departSpeed="0.00" departDelay="-0.80" arrival="389.00" arrivalLane="54i_0" arrivalPos="10.00" arrivalSpeed="18.86" duration="247.00" routeLength="596.93" waitingTime="199.00" waitingCount="1" stopTime="0.00" timeLoss="215.90" rerouteNo="0" devices="tripinfo_40" vType="DEFAULT_VEHTYPE" speedFactor="1.03" vaporized=""/>
    <tripinfo id="54" depart="192.00" departLane="52o_0" departPos="5.10" departSpeed="0.00" departDelay="-0.78" arrival="389.00" arrivalLane="53i_0" arrivalPos="10.00" arrivalSpeed="18.99" duration="197.00" routeLength="617.75" waitingTime="150.00" waitingCount="1" stopTime="0.00" timeLoss="164.19" rerouteNo="0" devices="tripinfo_54" vType="DEFAULT_VEHTYPE" speedFactor="1.00" vaporized=""/>
    <tripinfo id="88" depart="314.00" departLane="52o_0" departPos="5.10" departSpeed="0.00" departDelay="-0.16" arrival="389.00" arrivalLane="51i_1" arrivalPos="10.00" arrivalSpeed="18.48" duration="75.00" routeLength="615.10" waitingTime="26.00" waitingCount="1" stopTime="0.00" timeLoss="42.69" rerouteNo="0" devices="tripinfo_88" vType="DEFAULT_VEHTYPE" speedFactor="1.01" vaporized=""/>
    <tripinfo id="96" depart="342.00" departLane="52o_0" departPos="5.10" departSpeed="0.00" departDelay="-0.72" arrival="390.00" arrivalLane="51i_1" arrivalPos="10.00" arrivalSpeed="18.83" duration="48.00" routeLength="615.10" waitingTime="1.00" waitingCount="1" stopTime="0.00" timeLoss="16.25" rerouteNo="0" devices="tripinfo_96" vType="DEFAULT_VEHTYPE" speedFactor="1.01" vaporized=""/>
    <tripinfo id="43" depart="153.00" departLane="52o_0" departPos="5.10" departSpeed="0.00" departDelay="-0.51" arrival="391.00" arrivalLane="54i_0" arrivalPos="10.00" arrivalSpeed="19.76" duration="238.00" routeLength="596.93" waitingTime="189.00" waitingCount="1" stopTime="0.00" timeLoss="207.26" rerouteNo="0" devices="tripinfo_43" vType="DEFAULT_VEHTYPE" speedFactor="1.04" vaporized=""/>