<?xml version="1.0" encoding="UTF-8"?>

<!-- generated on Thu Nov  7 23:15:15 2019 by Eclipse SUMO Version 1.2.0
<configuration xmlns:xsi="http://www.w3.org/2001/XMLSchema-instance" xsi:noNamespaceSchemaLocation="http://sumo.dlr.de/xsd/sumoConfiguration.xsd">

    <input>
        <net-file value="simulation_files/sumocfgs/../networks/isolated_3_lanes_4_stages.net.xml"/>
        <route-files value="simulation_files/sumocfgs/../routes/isolated_3_lanes_20p.rou.xml"/>
    </input>

    <output>
        <tripinfo-output value="./output/exp21_rf_20p/delay__6_tripinfo_isolated.xml"/>
    </output>

    <time>
        <begin value="0"/>
        <step-length value="1"/>
    </time>

    <report>
        <verbose value="true"/>
        <no-step-log value="true"/>
    </report>

    <gui_only>
        <tracker-interval value="1"/>
    </gui_only>

</configuration>
-->

<tripinfos xmlns:xsi="http://www.w3.org/2001/XMLSchema-instance" xsi:noNamespaceSchemaLocation="http://sumo.dlr.de/xsd/tripinfo_file.xsd">
    <tripinfo id="2" depart="7.00" departLane="52o_0" departPos="5.10" departSpeed="0.00" departDelay="-0.14" arrival="48.00" arrivalLane="54i_0" arrivalPos="10.00" arrivalSpeed="19.14" duration="41.00" routeLength="596.93" waitingTime="0.00" waitingCount="0" stopTime="0.00" timeLoss="9.18" rerouteNo="0" devices="tripinfo_2" vType="DEFAULT_VEHTYPE" speedFactor="1.01" vaporized=""/>
    <tripinfo id="6" depart="21.00" departLane="52o_0" departPos="5.10" departSpeed="0.00" departDelay="-0.42" arrival="57.00" arrivalLane="51i_0" arrivalPos="10.00" arrivalSpeed="19.72" duration="36.00" routeLength="615.10" waitingTime="0.00" waitingCount="0" stopTime="0.00" timeLoss="5.27" rerouteNo="0" devices="tripinfo_6" vType="DEFAULT_VEHTYPE" speedFactor="1.05" vaporized=""/>
    <tripinfo id="5" depart="17.00" departLane="52o_0" departPos="5.10" departSpeed="0.00" departDelay="-0.85" arrival="64.00" arrivalLane="53i_0" arrivalPos="10.00" arrivalSpeed="15.40" duration="47.00" routeLength="617.75" waitingTime="0.00" waitingCount="0" stopTime="0.00" timeLoss="6.72" rerouteNo="0" devices="tripinfo_5" vType="DEFAULT_VEHTYPE" speedFactor="0.83" vaporized=""/>
    <tripinfo id="7" depart="24.00" departLane="52o_0" departPos="5.10" departSpeed="0.00" departDelay="-0.99" arrival="66.00" arrivalLane="51i_0" arrivalPos="10.00" arrivalSpeed="16.20" duration="42.00" routeLength="615.10" waitingTime="0.00" waitingCount="0" stopTime="0.00" timeLoss="5.58" rerouteNo="0" devices="tripinfo_7" vType="DEFAULT_VEHTYPE" speedFactor="0.89" vaporized=""/>
    <tripinfo id="8" depart="28.00" departLane="52o_0" departPos="5.10" departSpeed="0.00" departDelay="-0.56" arrival="67.00" arrivalLane="51i_0" arrivalPos="10.00" arrivalSpeed="17.67" duration="39.00" routeLength="615.10" waitingTime="0.00" waitingCount="0" stopTime="0.00" timeLoss="5.05" rerouteNo="0" devices="tripinfo_8" vType="DEFAULT_VEHTYPE" speedFactor="0.94" vaporized=""/>
    <tripinfo id="11" depart="39.00" departLane="52o_0" departPos="5.10" departSpeed="0.00" departDelay="-0.27" arrival="80.00" arrivalLane="53i_0" arrivalPos="10.00" arrivalSpeed="19.90" duration="41.00" routeLength="617.75" waitingTime="0.00" waitingCount="0" stopTime="0.00" timeLoss="8.14" rerouteNo="0" devices="tripinfo_11" vType="DEFAULT_VEHTYPE" speedFactor="1.03" vaporized=""/>
    <tripinfo id="14" depart="49.00" departLane="52o_0" departPos="5.10" departSpeed="0.00" departDelay="-0.98" arrival="91.00" arrivalLane="53i_0" arrivalPos="10.00" arrivalSpeed="18.01" duration="42.00" routeLength="617.75" waitingTime="0.00" waitingCount="0" stopTime="0.00" timeLoss="8.44" rerouteNo="0" devices="tripinfo_14" vType="DEFAULT_VEHTYPE" speedFactor="0.99" vaporized=""/>
    <tripinfo id="19" depart="67.00" departLane="52o_0" departPos="5.10" departSpeed="0.00" departDelay="-0.83" arrival="101.00" arrivalLane="51i_0" arrivalPos="10.00" arrivalSpeed="22.10" duration="34.00" routeLength="615.10" waitingTime="0.00" waitingCount="0" stopTime="0.00" timeLoss="6.37" rerouteNo="0" devices="tripinfo_19" vType="DEFAULT_VEHTYPE" speedFactor="1.16" vaporized=""/>
    <tripinfo id="16" depart="57.00" departLane="52o_0" departPos="5.10" departSpeed="0.00" departDelay="-0.12" arrival="102.00" arrivalLane="53i_0" arrivalPos="10.00" arrivalSpeed="16.64" duration="45.00" routeLength="617.75" waitingTime="0.00" waitingCount="0" stopTime="0.00" timeLoss="7.54" rerouteNo="0" devices="tripinfo_16" vType="DEFAULT_VEHTYPE" speedFactor="0.88" vaporized=""/>
    <tripinfo id="18" depart="64.00" departLane="52o_0" departPos="5.10" departSpeed="0.00" departDelay="-0.26" arrival="108.00" arrivalLane="53i_0" arrivalPos="10.00" arrivalSpeed="17.02" duration="44.00" routeLength="617.75" waitingTime="0.00" waitingCount="0" stopTime="0.00" timeLoss="8.33" rerouteNo="0" devices="tripinfo_18" vType="DEFAULT_VEHTYPE" speedFactor="0.94" vaporized=""/>
    <tripinfo id="22" depart="78.00" departLane="52o_0" departPos="5.10" departSpeed="0.00" departDelay="-0.54" arrival="120.00" arrivalLane="53i_0" arrivalPos="10.00" arrivalSpeed="18.85" duration="42.00" routeLength="617.75" waitingTime="0.00" waitingCount="0" stopTime="0.00" timeLoss="8.03" rerouteNo="0" devices="tripinfo_22" vType="DEFAULT_VEHTYPE" speedFactor="0.98" vaporized=""/>
    <tripinfo id="0" depart="0.00" departLane="53o_0" departPos="5.10" departSpeed="0.00" departDelay="0.00" arrival="126.00" arrivalLane="52i_0" arrivalPos="10.00" arrivalSpeed="19.38" duration="126.00" routeLength="596.93" waitingTime="83.00" waitingCount="1" stopTime="0.00" timeLoss="95.79" rerouteNo="0" devices="tripinfo_0" vType="DEFAULT_VEHTYPE" speedFactor="1.06" vaporized=""/>
    <tripinfo id="12" depart="42.00" departLane="53o_0" departPos="5.10" departSpeed="0.00" departDelay="-0.84" arrival="128.00" arrivalLane="54i_1" arrivalPos="10.00" arrivalSpeed="17.91" duration="86.00" routeLength="615.10" waitingTime="40.00" waitingCount="1" stopTime="0.00" timeLoss="55.67" rerouteNo="0" devices="tripinfo_12" vType="DEFAULT_VEHTYPE" speedFactor="1.05" vaporized=""/>
    <tripinfo id="15" depart="53.00" departLane="53o_0" departPos="5.10" departSpeed="0.00" departDelay="-0.55" arrival="128.00" arrivalLane="54i_2" arrivalPos="10.00" arrivalSpeed="17.18" duration="75.00" routeLength="615.10" waitingTime="27.00" waitingCount="1" stopTime="0.00" timeLoss="40.53" rerouteNo="0" devices="tripinfo_15" vType="DEFAULT_VEHTYPE" speedFactor="0.93" vaporized=""/>
    <tripinfo id="17" depart="60.00" departLane="53o_0" departPos="5.10" departSpeed="0.00" departDelay="-0.69" arrival="130.00" arrivalLane="52i_0" arrivalPos="10.00" arrivalSpeed="17.92" duration="70.00" routeLength="596.93" waitingTime="23.00" waitingCount="1" stopTime="0.00" timeLoss="36.10" rerouteNo="0" devices="tripinfo_17" vType="DEFAULT_VEHTYPE" speedFactor="0.94" vaporized=""/>
    <tripinfo id="24" depart="85.00" departLane="53o_0" departPos="5.10" departSpeed="0.00" departDelay="-0.68" arrival="132.00" arrivalLane="54i_2" arrivalPos="10.00" arrivalSpeed="15.58" duration="47.00" routeLength="615.10" waitingTime="0.00" waitingCount="0" stopTime="0.00" timeLoss="8.04" rerouteNo="0" devices="tripinfo_24" vType="DEFAULT_VEHTYPE" speedFactor="0.83" vaporized=""/>
    <tripinfo id="31" depart="110.00" departLane="53o_0" departPos="5.10" departSpeed="0.00" departDelay="-0.67" arrival="148.00" arrivalLane="52i_0" arrivalPos="10.00" arrivalSpeed="21.34" duration="38.00" routeLength="596.93" waitingTime="0.00" waitingCount="0" stopTime="0.00" timeLoss="9.91" rerouteNo="0" devices="tripinfo_31" vType="DEFAULT_VEHTYPE" speedFactor="1.15" vaporized=""/>
    <tripinfo id="32" depart="114.00" departLane="53o_0" departPos="5.10" departSpeed="0.00" departDelay="-0.24" arrival="152.00" arrivalLane="54i_0" arrivalPos="10.00" arrivalSpeed="18.55" duration="38.00" routeLength="615.10" waitingTime="0.00" waitingCount="0" stopTime="0.00" timeLoss="5.92" rerouteNo="0" devices="tripinfo_32" vType="DEFAULT_VEHTYPE" speedFactor="1.01" vaporized=""/>
    <tripinfo id="1" depart="3.00" departLane="51o_0" departPos="5.10" departSpeed="0.00" departDelay="-0.57" arrival="159.00" arrivalLane="53i_0" arrivalPos="10.00" arrivalSpeed="17.35" duration="156.00" routeLength="596.93" waitingTime="109.00" waitingCount="1" stopTime="0.00" timeLoss="122.40" rerouteNo="0" devices="tripinfo_1" vType="DEFAULT_VEHTYPE" speedFactor="0.94" vaporized=""/>
    <tripinfo id="13" depart="46.00" departLane="51o_0" departPos="5.10" departSpeed="0.00" departDelay="-0.41" arrival="161.00" arrivalLane="53i_0" arrivalPos="10.00" arrivalSpeed="20.02" duration="115.00" routeLength="596.93" waitingTime="70.00" waitingCount="1" stopTime="0.00" timeLoss="85.95" rerouteNo="0" devices="tripinfo_13" vType="DEFAULT_VEHTYPE" speedFactor="1.12" vaporized=""/>
    <tripinfo id="9" depart="32.00" departLane="51o_0" departPos="5.10" departSpeed="0.00" departDelay="-0.13" arrival="163.00" arrivalLane="54i_0" arrivalPos="10.00" arrivalSpeed="16.41" duration="131.00" routeLength="617.75" waitingTime="79.00" waitingCount="1" stopTime="0.00" timeLoss="92.24" rerouteNo="0" devices="tripinfo_9" vType="DEFAULT_VEHTYPE" speedFactor="0.86" vaporized=""/>
    <tripinfo id="21" depart="74.00" departLane="51o_0" departPos="5.10" departSpeed="0.00" departDelay="-0.97" arrival="163.00" arrivalLane="53i_0" arrivalPos="10.00" arrivalSpeed="19.21" duration="89.00" routeLength="596.93" waitingTime="44.00" waitingCount="1" stopTime="0.00" timeLoss="57.53" rerouteNo="0" devices="tripinfo_21" vType="DEFAULT_VEHTYPE" speedFactor="1.01" vaporized=""/>
    <tripinfo id="25" depart="89.00" departLane="51o_0" departPos="5.10" departSpeed="0.00" departDelay="-0.25" arrival="165.00" arrivalLane="54i_0" arrivalPos="10.00" arrivalSpeed="16.63" duration="76.00" routeLength="617.75" waitingTime="25.00" waitingCount="1" stopTime="0.00" timeLoss="37.85" rerouteNo="0" devices="tripinfo_25" vType="DEFAULT_VEHTYPE" speedFactor="0.87" vaporized=""/>
    <tripinfo id="23" depart="82.00" departLane="51o_0" departPos="5.10" departSpeed="0.00" departDelay="-0.11" arrival="169.00" arrivalLane="53i_0" arrivalPos="10.00" arrivalSpeed="16.05" duration="87.00" routeLength="596.93" waitingTime="34.00" waitingCount="1" stopTime="0.00" timeLoss="51.08" rerouteNo="0" devices="tripinfo_23" vType="DEFAULT_VEHTYPE" speedFactor="0.89" vaporized=""/>
    <tripinfo id="26" depart="92.00" departLane="51o_0" departPos="5.10" departSpeed="0.00" departDelay="-0.82" arrival="171.00" arrivalLane="53i_0" arrivalPos="10.00" arrivalSpeed="17.40" duration="79.00" routeLength="596.93" waitingTime="25.00" waitingCount="1" stopTime="0.00" timeLoss="43.69" rerouteNo="0" devices="tripinfo_26" vType="DEFAULT_VEHTYPE" speedFactor="0.92" vaporized=""/>
    <tripinfo id="41" depart="146.00" departLane="51o_0" departPos="5.10" departSpeed="0.00" departDelay="-0.37" arrival="188.00" arrivalLane="53i_0" arrivalPos="10.00" arrivalSpeed="17.95" duration="42.00" routeLength="596.93" waitingTime="0.00" waitingCount="0" stopTime="0.00" timeLoss="8.72" rerouteNo="0" devices="tripinfo_41" vType="DEFAULT_VEHTYPE" speedFactor="0.96" vaporized=""/>
    <tripinfo id="45" depart="160.00" departLane="51o_0" departPos="5.10" departSpeed="0.00" departDelay="-0.65" arrival="196.00" arrivalLane="52i_0" arrivalPos="10.00" arrivalSpeed="20.61" duration="36.00" routeLength="615.10" waitingTime="0.00" waitingCount="0" stopTime="0.00" timeLoss="6.00" rerouteNo="0" devices="tripinfo_45" vType="DEFAULT_VEHTYPE" speedFactor="1.09" vaporized=""/>
    <tripinfo id="3" depart="10.00" departLane="54o_0" departPos="5.10" departSpeed="0.00" departDelay="-0.71" arrival="227.00" arrivalLane="53i_0" arrivalPos="10.00" arrivalSpeed="18.68" duration="217.00" routeLength="615.10" waitingTime="172.00" waitingCount="1" stopTime="0.00" timeLoss="187.21" rerouteNo="0" devices="tripinfo_3" vType="DEFAULT_VEHTYPE" speedFactor="1.08" vaporized=""/>
    <tripinfo id="4" depart="14.00" departLane="54o_0" departPos="5.10" departSpeed="0.00" departDelay="-0.28" arrival="227.00" arrivalLane="52i_0" arrivalPos="10.00" arrivalSpeed="19.96" duration="213.00" routeLength="617.75" waitingTime="168.00" waitingCount="1" stopTime="0.00" timeLoss="180.94" rerouteNo="0" devices="tripinfo_4" vType="DEFAULT_VEHTYPE" speedFactor="1.03" vaporized=""/>
    <tripinfo id="20" depart="71.00" departLane="54o_0" departPos="5.10" departSpeed="0.00" departDelay="-0.40" arrival="227.00" arrivalLane="53i_1" arrivalPos="10.00" arrivalSpeed="19.34" duration="156.00" routeLength="615.10" waitingTime="111.00" waitingCount="1" stopTime="0.00" timeLoss="124.05" rerouteNo="0" devices="tripinfo_20" vType="DEFAULT_VEHTYPE" speedFactor="1.02" vaporized=""/>
    <tripinfo id="28" depart="99.00" departLane="54o_0" departPos="5.10" departSpeed="0.00" departDelay="-0.96" arrival="228.00" arrivalLane="51i_0" arrivalPos="10.00" arrivalSpeed="21.88" duration="129.00" routeLength="596.93" waitingTime="85.00" waitingCount="1" stopTime="0.00" timeLoss="99.90" rerouteNo="0" devices="tripinfo_28" vType="DEFAULT_VEHTYPE" speedFactor="1.13" vaporized=""/>
    <tripinfo id="10" depart="35.00" departLane="54o_0" departPos="5.10" departSpeed="0.00" departDelay="-0.70" arrival="229.00" arrivalLane="52i_0" arrivalPos="10.00" arrivalSpeed="20.42" duration="194.00" routeLength="617.75" waitingTime="150.00" waitingCount="1" stopTime="0.00" timeLoss="163.12" rerouteNo="0" devices="tripinfo_10" vType="DEFAULT_VEHTYPE" speedFactor="1.09" vaporized=""/>
    <tripinfo id="33" depart="117.00" departLane="54o_0" departPos="5.10" departSpeed="0.00" departDelay="-0.81" arrival="229.00" arrivalLane="51i_0" arrivalPos="10.00" arrivalSpeed="21.90" duration="112.00" routeLength="596.93" waitingTime="70.00" waitingCount="1" stopTime="0.00" timeLoss="84.76" rerouteNo="0" devices="tripinfo_33" vType="DEFAULT_VEHTYPE" speedFactor="1.17" vaporized=""/>
    <tripinfo id="29" depart="103.00" departLane="54o_0" departPos="5.10" departSpeed="0.00" departDelay="-0.53" arrival="230.00" arrivalLane="53i_1" arrivalPos="10.00" arrivalSpeed="17.95" duration="127.00" routeLength="615.10" waitingTime="77.00" waitingCount="1" stopTime="0.00" timeLoss="92.68" rerouteNo="0" devices="tripinfo_29" vType="DEFAULT_VEHTYPE" speedFactor="0.93" vaporized=""/>
    <tripinfo id="44" depart="157.00" departLane="54o_0" departPos="5.10" departSpeed="0.00" departDelay="-0.08" arrival="230.00" arrivalLane="53i_2" arrivalPos="10.00" arrivalSpeed="20.05" duration="73.00" routeLength="615.10" waitingTime="28.00" waitingCount="1" stopTime="0.00" timeLoss="42.07" rerouteNo="0" devices="tripinfo_44" vType="DEFAULT_VEHTYPE" speedFactor="1.04" vaporized=""/>
    <tripinfo id="42" depart="149.00" departLane="54o_0" departPos="5.10" departSpeed="0.00" departDelay="-0.94" arrival="232.00" arrivalLane="51i_0" arrivalPos="10.00" arrivalSpeed="20.81" duration="83.00" routeLength="596.93" waitingTime="38.00" waitingCount="1" stopTime="0.00" timeLoss="53.99" rerouteNo="0" devices="tripinfo_42" vType="DEFAULT_VEHTYPE" speedFactor="1.09" vaporized=""/>
    <tripinfo id="47" depart="167.00" departLane="54o_0" departPos="5.10" departSpeed="0.00" departDelay="-0.79" arrival="236.00" arrivalLane="52i_0" arrivalPos="10.00" arrivalSpeed="17.09" duration="69.00" routeLength="617.75" waitingTime="17.00" waitingCount="1" stopTime="0.00" timeLoss="32.36" rerouteNo="0" devices="tripinfo_47" vType="DEFAULT_VEHTYPE" speedFactor="0.90" vaporized=""/>
    <tripinfo id="56" depart="199.00" departLane="54o_0" departPos="5.10" departSpeed="0.00" departDelay="-0.92" arrival="240.00" arrivalLane="53i_0" arrivalPos="10.00" arrivalSpeed="16.60" duration="41.00" routeLength="615.10" waitingTime="0.00" waitingCount="0" stopTime="0.00" timeLoss="5.29" rerouteNo="0" devices="tripinfo_56" vType="DEFAULT_VEHTYPE" speedFactor="0.90" vaporized=""/>
    <tripinfo id="50" depart="178.00" departLane="54o_0" departPos="5.10" departSpeed="0.00" departDelay="-0.50" arrival="241.00" arrivalLane="52i_0" arrivalPos="10.00" arrivalSpeed="15.61" duration="63.00" routeLength="617.75" waitingTime="9.00" waitingCount="1" stopTime="0.00" timeLoss="24.04" rerouteNo="0" devices="tripinfo_50" vType="DEFAULT_VEHTYPE" speedFactor="0.85" vaporized=""/>
    <tripinfo id="58" depart="207.00" departLane="54o_0" departPos="5.10" departSpeed="0.00" departDelay="-0.06" arrival="243.00" arrivalLane="53i_0" arrivalPos="10.00" arrivalSpeed="19.33" duration="36.00" routeLength="615.10" waitingTime="0.00" waitingCount="0" stopTime="0.00" timeLoss="4.92" rerouteNo="0" devices="tripinfo_58" vType="DEFAULT_VEHTYPE" speedFactor="1.02" vaporized=""/>
    <tripinfo id="68" depart="242.00" departLane="54o_0" departPos="5.10" departSpeed="0.00" departDelay="-0.76" arrival="282.00" arrivalLane="52i_0" arrivalPos="10.00" arrivalSpeed="19.14" duration="40.00" routeLength="617.75" waitingTime="0.00" waitingCount="0" stopTime="0.00" timeLoss="7.29" rerouteNo="0" devices="tripinfo_68" vType="DEFAULT_VEHTYPE" speedFactor="1.04" vaporized=""/>
    <tripinfo id="73" depart="260.00" departLane="54o_0" departPos="5.10" departSpeed="0.00" departDelay="-0.61" arrival="300.00" arrivalLane="52i_0" arrivalPos="10.00" arrivalSpeed="19.90" duration="40.00" routeLength="617.75" waitingTime="0.00" waitingCount="0" stopTime="0.00" timeLoss="7.80" rerouteNo="0" devices="tripinfo_73" vType="DEFAULT_VEHTYPE" speedFactor="1.06" vaporized=""/>
    <tripinfo id="75" depart="267.00" departLane="54o_0" departPos="5.10" departSpeed="0.00" departDelay="-0.75" arrival="308.00" arrivalLane="51i_0" arrivalPos="10.00" arrivalSpeed="18.36" duration="41.00" routeLength="596.93" waitingTime="0.00" waitingCount="0" stopTime="0.00" timeLoss="9.15" rerouteNo="0" devices="tripinfo_75" vType="DEFAULT_VEHTYPE" speedFactor="0.98" vaporized=""/>
    <tripinfo id="78" depart="278.00" departLane="54o_0" departPos="5.10" departSpeed="0.00" departDelay="-0.46" arrival="315.00" arrivalLane="53i_0" arrivalPos="10.00" arrivalSpeed="18.94" duration="37.00" routeLength="615.10" waitingTime="0.00" waitingCount="0" stopTime="0.00" timeLoss="5.15" rerouteNo="0" devices="tripinfo_78" vType="DEFAULT_VEHTYPE" speedFactor="1.01" vaporized=""/>
    <tripinfo id="79" depart="282.00" departLane="54o_0" departPos="5.10" departSpeed="0.00" departDelay="-0.03" arrival="321.00" arrivalLane="51i_0" arrivalPos="10.00" arrivalSpeed="19.95" duration="39.00" routeLength="596.93" waitingTime="0.00" waitingCount="0" stopTime="0.00" timeLoss="9.54" rerouteNo="0" devices="tripinfo_79" vType="DEFAULT_VEHTYPE" speedFactor="1.09" vaporized=""/>
    <tripinfo id="30" depart="107.00" departLane="52o_0" departPos="5.10" departSpeed="0.00" departDelay="-0.10" arrival="328.00" arrivalLane="54i_0" arrivalPos="10.00" arrivalSpeed="22.14" duration="221.00" routeLength="596.93" waitingTime="177.00" waitingCount="1" stopTime="0.00" timeLoss="192.94" rerouteNo="0" devices="tripinfo_30" vType="DEFAULT_VEHTYPE" speedFactor="1.18" vaporized=""/>
    <tripinfo id="38" depart="135.00" departLane="52o_0" departPos="5.10" departSpeed="0.00" departDelay="-0.66" arrival="328.00" arrivalLane="53i_0" arrivalPos="10.00" arrivalSpeed="20.19" duration="193.00" routeLength="617.75" waitingTime="149.00" waitingCount="1" stopTime="0.00" timeLoss="162.91" rerouteNo="0" devices="tripinfo_38" vType="DEFAULT_VEHTYPE" speedFactor="1.10" vaporized=""/>
    <tripinfo id="46" depart="164.00" departLane="52o_0" departPos="5.10" departSpeed="0.00" departDelay="-0.22" arrival="328.00" arrivalLane="51i_1" arrivalPos="10.00" arrivalSpeed="18.52" duration="164.00" routeLength="615.10" waitingTime="118.00" waitingCount="1" stopTime="0.00" timeLoss="131.46" rerouteNo="0" devices="tripinfo_46" vType="DEFAULT_VEHTYPE" speedFactor="1.00" vaporized=""/>
    <tripinfo id="27" depart="96.00" departLane="52o_0" departPos="5.10" departSpeed="0.00" departDelay="-0.39" arrival="329.00" arrivalLane="51i_0" arrivalPos="10.00" arrivalSpeed="17.24" duration="233.00" routeLength="615.10" waitingTime="187.00" waitingCount="1" stopTime="0.00" timeLoss="199.07" rerouteNo="0" devices="tripinfo_27" vType="DEFAULT_VEHTYPE" speedFactor="0.95" vaporized=""/>
    <tripinfo id="36" depart="128.00" departLane="52o_0" departPos="5.10" departSpeed="0.00" departDelay="-0.52" arrival="332.00" arrivalLane="54i_0" arrivalPos="10.00" arrivalSpeed="18.52" duration="204.00" routeLength="596.93" waitingTime="157.00" waitingCount="1" stopTime="0.00" timeLoss="171.78" rerouteNo="0" devices="tripinfo_36" vType="DEFAULT_VEHTYPE" speedFactor="0.97" vaporized=""/>
    <tripinfo id="48" depart="171.00" departLane="52o_0" departPos="5.10" departSpeed="0.00" departDelay="-0.36" arrival="332.00" arrivalLane="51i_1" arrivalPos="10.00" arrivalSpeed="15.95" duration="161.00" routeLength="615.10" waitingTime="113.00" waitingCount="1" stopTime="0.00" timeLoss="124.11" rerouteNo="0" devices="tripinfo_48" vType="DEFAULT_VEHTYPE" speedFactor="0.88" vaporized=""/>
    <tripinfo id="49" depart="174.00" departLane="52o_0" departPos="5.10" departSpeed="0.00" departDelay="-0.93" arrival="333.00" arrivalLane="51i_2" arrivalPos="10.00" arrivalSpeed="15.81" duration="159.00" routeLength="615.10" waitingTime="109.00" waitingCount="1" stopTime="0.00" timeLoss="120.90" rerouteNo="0" devices="tripinfo_49" vType="DEFAULT_VEHTYPE" speedFactor="0.85" vaporized=""/>
    <tripinfo id="53" depart="189.00" departLane="52o_0" departPos="5.10" departSpeed="0.00" departDelay="-0.21" arrival="333.00" arrivalLane="53i_0" arrivalPos="10.00" arrivalSpeed="20.55" duration="144.00" routeLength="617.75" waitingTime="98.00" waitingCount="1" stopTime="0.00" timeLoss="113.51" rerouteNo="0" devices="tripinfo_53" vType="DEFAULT_VEHTYPE" speedFactor="1.10" vaporized=""/>
    <tripinfo id="77" depart="274.00" departLane="52o_0" departPos="5.10" departSpeed="0.00" departDelay="-0.89" arrival="333.00" arrivalLane="51i_1" arrivalPos="10.00" arrivalSpeed="17.94" duration="59.00" routeLength="615.10" waitingTime="10.00" waitingCount="1" stopTime="0.00" timeLoss="26.50" rerouteNo="0" devices="tripinfo_77" vType="DEFAULT_VEHTYPE" speedFactor="0.98" vaporized=""/>
    <tripinfo id="37" depart="132.00" departLane="52o_0" departPos="5.10" departSpeed="0.00" departDelay="-0.09" arrival="334.00" arrivalLane="54i_0" arrivalPos="10.00" arrivalSpeed="22.28" duration="202.00" routeLength="596.93" waitingTime="156.00" waitingCount="1" stopTime="0.00" timeLoss="174.34" rerouteNo="0" devices="tripinfo_37" vType="DEFAULT_VEHTYPE" speedFactor="1.18" vaporized=""/>
    <tripinfo id="40" depart="142.00" departLane="52o_0" departPos="5.10" departSpeed="0.00" departDelay="-0.80" arrival="337.00" arrivalLane="54i_0" arrivalPos="10.00" arrivalSpeed="19.87" duration="195.00" routeLength="596.93" waitingTime="147.00" waitingCount="1" stopTime="0.00" timeLoss="164.24" rerouteNo="0" devices="tripinfo_40" vType="DEFAULT_VEHTYPE" speedFactor="1.03" vaporized=""/>
    <tripinfo id="54" depart="192.00" departLane="52o_0" departPos="5.10" departSpeed="0.00" departDelay="-0.78" arrival="337.00" arrivalLane="53i_0" arrivalPos="10.00" arrivalSpeed="19.02" duration="145.00" routeLength="617.75" waitingTime="96.00" waitingCount="1" stopTime="0.00" timeLoss="111.35" rerouteNo="0" devices="tripinfo_54" vType="DEFAULT_VEHTYPE" speedFactor="1.00" vaporized=""/>
    <tripinfo id="43" depart="153.00" departLane="52o_0" departPos="5.10" departSpeed="0.00" departDelay="-0.51" arrival="339.00" arrivalLane="54i_0" arrivalPos="10.00" arrivalSpeed="19.02" duration="186.00" routeLength="596.93" waitingTime="138.00" waitingCount="1" stopTime="0.00" timeLoss="155.03" rerouteNo="0" devices="tripinfo_43" vType="DEFAULT_VEHTYPE" speedFactor="1.04" vaporized=""/>
    <tripinfo id="74" depart="264.00" departLane="52o_0" departPos="5.10" departSpeed="0.00" departDelay="-0.18" arrival="340.00" arrivalLane="53i_0" arrivalPos="10.00" arrivalSpeed="17.39" duration="76.00" routeLength="617.75" waitingTime="26.00" waitingCount="1" stopTime="0.00" timeLoss="40.94" rerouteNo="0" devices="tripinfo_74" vType="DEFAULT_VEHTYPE" speedFactor="0.96" vaporized=""/>
    <tripinfo id="62" depart="221.00" departLane="52o_0" departPos="5.10" departSpeed="0.00" departDelay="-0.34" arrival="342.00" arrivalLane="54i_0" arrivalPos="10.00" arrivalSpeed="19.64" duration="121.00" routeLength="596.93" waitingTime="70.00" waitingCount="1" stopTime="0.00" timeLoss="89.64" rerouteNo="0" devices="tripinfo_62" vType="DEFAULT_VEHTYPE" speedFactor="1.02" vaporized=""/>
    <tripinfo id="70" depart="249.00" departLane="52o_0" departPos="5.10" departSpeed="0.00" departDelay="-0.90" arrival="345.00" arrivalLane="54i_0" arrivalPos="10.00" arrivalSpeed="18.71" duration="96.00" routeLength="596.93" waitingTime="43.00" waitingCount="1" stopTime="0.00" timeLoss="64.17" rerouteNo="0" devices="tripinfo_70" vType="DEFAULT_VEHTYPE" speedFactor="1.02" vaporized=""/>
    <tripinfo id="80" depart="285.00" departLane="52o_0" departPos="5.10" departSpeed="0.00" departDelay="-0.60" arrival="346.00" arrivalLane="54i_0" arrivalPos="10.00" arrivalSpeed="19.45" duration="61.00" routeLength="596.93" waitingTime="10.00" waitingCount="1" stopTime="0.00" timeLoss="30.61" rerouteNo="0" devices="tripinfo_80" vType="DEFAULT_VEHTYPE" speedFactor="1.03" vaporized=""/>
    <tripinfo id="87" depart="310.00" departLane="52o_0" departPos="5.10" departSpeed="0.00" departDelay="-0.59" arrival="351.00" arrivalLane="54i_0" arrivalPos="10.00" arrivalSpeed="19.86" duration="41.00" routeLength="596.93" waitingTime="0.00" waitingCount="0" stopTime="0.00" timeLoss="10.03" rerouteNo="0" devices="tripinfo_87" vType="DEFAULT_VEHTYPE" speedFactor="1.04" vaporized=""/>
    <tripinfo id="88" depart="314.00" departLane="52o_0" departPos="5.10" departSpeed="0.00" departDelay="-0.16" arrival="352.00" arrivalLane="51i_0" arrivalPos="10.00" arrivalSpeed="18.94" duration="38.00" routeLength="615.10" waitingTime="0.00" waitingCount="0" stopTime="0.00" timeLoss="5.96" rerouteNo="0" devices="tripinfo_88" vType="DEFAULT_VEHTYPE" speedFactor="1.01" vaporized=""/>
    <tripinfo id="34" depart="121.00" departLane="53o_0" departPos="5.10" departSpeed="0.00" departDelay="-0.38" arrival="360.00" arrivalLane="54i_0" arrivalPos="10.00" arrivalSpeed="18.44" duration="239.00" routeLength="615.10" waitingTime="193.00" waitingCount="1" stopTime="0.00" timeLoss="206.89" rerouteNo="0" devices="tripinfo_34" vType="DEFAULT_VEHTYPE" speedFactor="0.99" vaporized=""/>
    <tripinfo id="35" depart="124.00" departLane="53o_0" departPos="5.10" departSpeed="0.00" departDelay="-0.95" arrival="360.00" arrivalLane="54i_1" arrivalPos="10.00" arrivalSpeed="19.11" duration="236.00" routeLength="615.10" waitingTime="191.00" waitingCount="1" stopTime="0.00" timeLoss="204.25" rerouteNo="0" devices="tripinfo_35" vType="DEFAULT_VEHTYPE" speedFactor="1.02" vaporized=""/>
    <tripinfo id="52" depart="185.00" departLane="53o_0" departPos="5.10" departSpeed="0.00" departDelay="-0.64" arrival="360.00" arrivalLane="51i_0" arrivalPos="10.00" arrivalSpeed="19.72" duration="175.00" routeLength="617.75" waitingTime="131.00" waitingCount="1" stopTime="0.00" timeLoss="142.72" rerouteNo="0" devices="tripinfo_52" vType="DEFAULT_VEHTYPE" speedFactor="1.02" vaporized=""/>
    <tripinfo id="39" depart="139.00" departLane="53o_0" departPos="5.10" departSpeed="0.00" departDelay="-0.23" arrival="363.00" arrivalLane="52i_0" arrivalPos="10.00" arrivalSpeed="17.11" duration="224.00" routeLength="596.93" waitingTime="176.00" waitingCount="1" stopTime="0.00" timeLoss="188.54" rerouteNo="0" devices="tripinfo_39" vType="DEFAULT_VEHTYPE" speedFactor="0.90" vaporized=""/>
    <tripinfo id="55" depart="196.00" departLane="53o_0" departPos="5.10" departSpeed="0.00" departDelay="-0.35" arrival="364.00" arrivalLane="51i_0" arrivalPos="10.00" arrivalSpeed="18.64" duration="168.00" routeLength="617.75" waitingTime="121.00" waitingCount="1" stopTime="0.00" timeLoss="134.41" rerouteNo="0" devices="tripinfo_55" vType="DEFAULT_VEHTYPE" speedFactor="1.00" vaporized=""/>
    <tripinfo id="51" depart="182.00" departLane="53o_0" departPos="5.10" departSpeed="0.00" departDelay="-0.07" arrival="365.00" arrivalLane="52i_0" arrivalPos="10.00" arrivalSpeed="21.57" duration="183.00" routeLength="596.93" waitingTime="135.00" waitingCount="1" stopTime="0.00" timeLoss="155.49" rerouteNo="0" devices="tripinfo_51" vType="DEFAULT_VEHTYPE" speedFactor="1.17" vaporized=""/>
    <tripinfo id="60" depart="214.00" departLane="53o_0" departPos="5.10" departSpeed="0.00" departDelay="-0.20" arrival="366.00" arrivalLane="51i_0" arrivalPos="10.00" arrivalSpeed="20.11" duration="152.00" routeLength="617.75" waitingTime="105.00" waitingCount="1" stopTime="0.00" timeLoss="121.33" rerouteNo="0" devices="tripinfo_60" vType="DEFAULT_VEHTYPE" speedFactor="1.08" vaporized=""/>
    <tripinfo id="61" depart="217.00" departLane="53o_0" departPos="5.10" departSpeed="0.00" departDelay="-0.77" arrival="366.00" arrivalLane="52i_0" arrivalPos="10.00" arrivalSpeed="20.53" duration="149.00" routeLength="596.93" waitingTime="103.00" waitingCount="1" stopTime="0.00" timeLoss="120.23" rerouteNo="0" devices="tripinfo_61" vType="DEFAULT_VEHTYPE" speedFactor="1.12" vaporized=""/>
    <tripinfo id="69" depart="246.00" departLane="53o_0" departPos="5.10" departSpeed="0.00" departDelay="-0.33" arrival="369.00" arrivalLane="52i_0" arrivalPos="10.00" arrivalSpeed="19.63" duration="123.00" routeLength="596.93" waitingTime="74.00" waitingCount="1" stopTime="0.00" timeLoss="91.00" rerouteNo="0" devices="tripinfo_69" vType="DEFAULT_VEHTYPE" speedFactor="1.02" vaporized=""/>
    <tripinfo id="71" depart="253.00" departLane="53o_0" departPos="5.10" departSpeed="0.00" departDelay="-0.47" arrival="370.00" arrivalLane="51i_0" arrivalPos="10.00" arrivalSpeed="17.82" duration="117.00" routeLength="617.75" waitingTime="66.00" waitingCount="1" stopTime="0.00" timeLoss="82.57" rerouteNo="0" devices="tripinfo_71" vType="DEFAULT_VEHTYPE" speedFactor="0.97" vaporized=""/>