<?xml version="1.0" encoding="UTF-8"?>

<!-- generated on Fri Nov  8 01:20:12 2019 by Eclipse SUMO Version 1.2.0
<configuration xmlns:xsi="http://www.w3.org/2001/XMLSchema-instance" xsi:noNamespaceSchemaLocation="http://sumo.dlr.de/xsd/sumoConfiguration.xsd">

    <input>
        <net-file value="simulation_files/sumocfgs/../networks/isolated_3_lanes_4_stages.net.xml"/>
        <route-files value="simulation_files/sumocfgs/../routes/isolated_3_lanes_20p.rou.xml"/>
    </input>

    <output>
        <tripinfo-output value="./output/exp21_rf_20p/delay_prq__0_tripinfo_isolated.xml"/>
    </output>

    <time>
        <begin value="0"/>
        <step-length value="1"/>
    </time>

    <report>
        <verbose value="true"/>
        <no-step-log value="true"/>
    </report>

    <gui_only>
        <tracker-interval value="1"/>
    </gui_only>

</configuration>
-->

<tripinfos xmlns:xsi="http://www.w3.org/2001/XMLSchema-instance" xsi:noNamespaceSchemaLocation="http://sumo.dlr.de/xsd/tripinfo_file.xsd">
    <tripinfo id="2" depart="7.00" departLane="52o_0" departPos="5.10" departSpeed="0.00" departDelay="-0.14" arrival="48.00" arrivalLane="54i_0" arrivalPos="10.00" arrivalSpeed="19.14" duration="41.00" routeLength="596.93" waitingTime="0.00" waitingCount="0" stopTime="0.00" timeLoss="9.18" rerouteNo="0" devices="tripinfo_2" vType="DEFAULT_VEHTYPE" speedFactor="1.01" vaporized=""/>
    <tripinfo id="6" depart="21.00" departLane="52o_0" departPos="5.10" departSpeed="0.00" departDelay="-0.42" arrival="57.00" arrivalLane="51i_0" arrivalPos="10.00" arrivalSpeed="20.21" duration="36.00" routeLength="615.10" waitingTime="0.00" waitingCount="0" stopTime="0.00" timeLoss="5.29" rerouteNo="0" devices="tripinfo_6" vType="DEFAULT_VEHTYPE" speedFactor="1.05" vaporized=""/>
    <tripinfo id="5" depart="17.00" departLane="52o_0" departPos="5.10" departSpeed="0.00" departDelay="-0.85" arrival="64.00" arrivalLane="53i_0" arrivalPos="10.00" arrivalSpeed="15.55" duration="47.00" routeLength="617.75" waitingTime="0.00" waitingCount="0" stopTime="0.00" timeLoss="6.73" rerouteNo="0" devices="tripinfo_5" vType="DEFAULT_VEHTYPE" speedFactor="0.83" vaporized=""/>
    <tripinfo id="0" depart="0.00" departLane="53o_0" departPos="5.10" departSpeed="0.00" departDelay="0.00" arrival="66.00" arrivalLane="52i_0" arrivalPos="10.00" arrivalSpeed="19.38" duration="66.00" routeLength="596.93" waitingTime="23.00" waitingCount="1" stopTime="0.00" timeLoss="35.71" rerouteNo="0" devices="tripinfo_0" vType="DEFAULT_VEHTYPE" speedFactor="1.06" vaporized=""/>
    <tripinfo id="12" depart="42.00" departLane="53o_0" departPos="5.10" departSpeed="0.00" departDelay="-0.84" arrival="78.00" arrivalLane="54i_0" arrivalPos="10.00" arrivalSpeed="19.76" duration="36.00" routeLength="615.10" waitingTime="0.00" waitingCount="0" stopTime="0.00" timeLoss="5.32" rerouteNo="0" devices="tripinfo_12" vType="DEFAULT_VEHTYPE" speedFactor="1.05" vaporized=""/>
    <tripinfo id="15" depart="53.00" departLane="53o_0" departPos="5.10" departSpeed="0.00" departDelay="-0.55" arrival="93.00" arrivalLane="54i_0" arrivalPos="10.00" arrivalSpeed="17.03" duration="40.00" routeLength="615.10" waitingTime="0.00" waitingCount="0" stopTime="0.00" timeLoss="5.46" rerouteNo="0" devices="tripinfo_15" vType="DEFAULT_VEHTYPE" speedFactor="0.93" vaporized=""/>
    <tripinfo id="17" depart="60.00" departLane="53o_0" departPos="5.10" departSpeed="0.00" departDelay="-0.69" arrival="102.00" arrivalLane="52i_0" arrivalPos="10.00" arrivalSpeed="17.03" duration="42.00" routeLength="596.93" waitingTime="0.00" waitingCount="0" stopTime="0.00" timeLoss="8.41" rerouteNo="0" devices="tripinfo_17" vType="DEFAULT_VEHTYPE" speedFactor="0.94" vaporized=""/>
    <tripinfo id="24" depart="85.00" departLane="53o_0" departPos="5.10" departSpeed="0.00" departDelay="-0.68" arrival="130.00" arrivalLane="54i_0" arrivalPos="10.00" arrivalSpeed="15.80" duration="45.00" routeLength="615.10" waitingTime="0.00" waitingCount="0" stopTime="0.00" timeLoss="5.93" rerouteNo="0" devices="tripinfo_24" vType="DEFAULT_VEHTYPE" speedFactor="0.83" vaporized=""/>
    <tripinfo id="1" depart="3.00" departLane="51o_0" departPos="5.10" departSpeed="0.00" departDelay="-0.57" arrival="154.00" arrivalLane="53i_0" arrivalPos="10.00" arrivalSpeed="17.49" duration="151.00" routeLength="596.93" waitingTime="103.00" waitingCount="1" stopTime="0.00" timeLoss="116.89" rerouteNo="0" devices="tripinfo_1" vType="DEFAULT_VEHTYPE" speedFactor="0.94" vaporized=""/>
    <tripinfo id="13" depart="46.00" departLane="51o_0" departPos="5.10" departSpeed="0.00" departDelay="-0.41" arrival="155.00" arrivalLane="53i_0" arrivalPos="10.00" arrivalSpeed="19.74" duration="109.00" routeLength="596.93" waitingTime="64.00" waitingCount="1" stopTime="0.00" timeLoss="80.88" rerouteNo="0" devices="tripinfo_13" vType="DEFAULT_VEHTYPE" speedFactor="1.12" vaporized=""/>
    <tripinfo id="9" depart="32.00" departLane="51o_0" departPos="5.10" departSpeed="0.00" departDelay="-0.13" arrival="156.00" arrivalLane="54i_0" arrivalPos="10.00" arrivalSpeed="15.70" duration="124.00" routeLength="617.75" waitingTime="73.00" waitingCount="1" stopTime="0.00" timeLoss="85.42" rerouteNo="0" devices="tripinfo_9" vType="DEFAULT_VEHTYPE" speedFactor="0.86" vaporized=""/>
    <tripinfo id="21" depart="74.00" departLane="51o_0" departPos="5.10" departSpeed="0.00" departDelay="-0.97" arrival="158.00" arrivalLane="53i_0" arrivalPos="10.00" arrivalSpeed="19.59" duration="84.00" routeLength="596.93" waitingTime="38.00" waitingCount="1" stopTime="0.00" timeLoss="51.80" rerouteNo="0" devices="tripinfo_21" vType="DEFAULT_VEHTYPE" speedFactor="1.01" vaporized=""/>
    <tripinfo id="25" depart="89.00" departLane="51o_0" departPos="5.10" departSpeed="0.00" departDelay="-0.25" arrival="158.00" arrivalLane="54i_0" arrivalPos="10.00" arrivalSpeed="16.63" duration="69.00" routeLength="617.75" waitingTime="19.00" waitingCount="1" stopTime="0.00" timeLoss="30.82" rerouteNo="0" devices="tripinfo_25" vType="DEFAULT_VEHTYPE" speedFactor="0.87" vaporized=""/>
    <tripinfo id="23" depart="82.00" departLane="51o_0" departPos="5.10" departSpeed="0.00" departDelay="-0.11" arrival="163.00" arrivalLane="53i_0" arrivalPos="10.00" arrivalSpeed="16.34" duration="81.00" routeLength="596.93" waitingTime="28.00" waitingCount="1" stopTime="0.00" timeLoss="45.17" rerouteNo="0" devices="tripinfo_23" vType="DEFAULT_VEHTYPE" speedFactor="0.89" vaporized=""/>
    <tripinfo id="26" depart="92.00" departLane="51o_0" departPos="5.10" departSpeed="0.00" departDelay="-0.82" arrival="166.00" arrivalLane="53i_0" arrivalPos="10.00" arrivalSpeed="16.65" duration="74.00" routeLength="596.93" waitingTime="19.00" waitingCount="1" stopTime="0.00" timeLoss="38.48" rerouteNo="0" devices="tripinfo_26" vType="DEFAULT_VEHTYPE" speedFactor="0.92" vaporized=""/>
    <tripinfo id="41" depart="146.00" departLane="51o_0" departPos="5.10" departSpeed="0.00" departDelay="-0.37" arrival="188.00" arrivalLane="53i_0" arrivalPos="10.00" arrivalSpeed="17.65" duration="42.00" routeLength="596.93" waitingTime="0.00" waitingCount="0" stopTime="0.00" timeLoss="8.73" rerouteNo="0" devices="tripinfo_41" vType="DEFAULT_VEHTYPE" speedFactor="0.96" vaporized=""/>
    <tripinfo id="45" depart="160.00" departLane="51o_0" departPos="5.10" departSpeed="0.00" departDelay="-0.65" arrival="196.00" arrivalLane="52i_0" arrivalPos="10.00" arrivalSpeed="20.61" duration="36.00" routeLength="615.10" waitingTime="0.00" waitingCount="0" stopTime="0.00" timeLoss="6.42" rerouteNo="0" devices="tripinfo_45" vType="DEFAULT_VEHTYPE" speedFactor="1.09" vaporized=""/>
    <tripinfo id="57" depart="203.00" departLane="51o_0" departPos="5.10" departSpeed="0.00" departDelay="-0.49" arrival="241.00" arrivalLane="53i_0" arrivalPos="10.00" arrivalSpeed="21.79" duration="38.00" routeLength="596.93" waitingTime="0.00" waitingCount="0" stopTime="0.00" timeLoss="9.62" rerouteNo="0" devices="tripinfo_57" vType="DEFAULT_VEHTYPE" speedFactor="1.14" vaporized=""/>
    <tripinfo id="59" depart="210.00" departLane="51o_0" departPos="5.10" departSpeed="0.00" departDelay="-0.63" arrival="252.00" arrivalLane="53i_0" arrivalPos="10.00" arrivalSpeed="18.42" duration="42.00" routeLength="596.93" waitingTime="0.00" waitingCount="0" stopTime="0.00" timeLoss="8.80" rerouteNo="0" devices="tripinfo_59" vType="DEFAULT_VEHTYPE" speedFactor="0.97" vaporized=""/>
    <tripinfo id="63" depart="224.00" departLane="51o_0" departPos="5.10" departSpeed="0.00" departDelay="-0.91" arrival="266.00" arrivalLane="54i_0" arrivalPos="10.00" arrivalSpeed="18.41" duration="42.00" routeLength="617.75" waitingTime="0.00" waitingCount="0" stopTime="0.00" timeLoss="8.17" rerouteNo="0" devices="tripinfo_63" vType="DEFAULT_VEHTYPE" speedFactor="0.99" vaporized=""/>
    <tripinfo id="20" depart="71.00" departLane="54o_0" departPos="5.10" departSpeed="0.00" departDelay="-0.40" arrival="271.00" arrivalLane="53i_1" arrivalPos="10.00" arrivalSpeed="19.05" duration="200.00" routeLength="615.10" waitingTime="156.00" waitingCount="1" stopTime="0.00" timeLoss="168.87" rerouteNo="0" devices="tripinfo_20" vType="DEFAULT_VEHTYPE" speedFactor="1.02" vaporized=""/>
    <tripinfo id="3" depart="10.00" departLane="54o_0" departPos="5.10" departSpeed="0.00" departDelay="-0.71" arrival="272.00" arrivalLane="53i_0" arrivalPos="10.00" arrivalSpeed="20.39" duration="262.00" routeLength="615.10" waitingTime="217.00" waitingCount="1" stopTime="0.00" timeLoss="232.17" rerouteNo="0" devices="tripinfo_3" vType="DEFAULT_VEHTYPE" speedFactor="1.08" vaporized=""/>
    <tripinfo id="4" depart="14.00" departLane="54o_0" departPos="5.10" departSpeed="0.00" departDelay="-0.28" arrival="272.00" arrivalLane="52i_0" arrivalPos="10.00" arrivalSpeed="18.81" duration="258.00" routeLength="617.75" waitingTime="213.00" waitingCount="1" stopTime="0.00" timeLoss="226.10" rerouteNo="0" devices="tripinfo_4" vType="DEFAULT_VEHTYPE" speedFactor="1.03" vaporized=""/>
    <tripinfo id="28" depart="99.00" departLane="54o_0" departPos="5.10" departSpeed="0.00" departDelay="-0.96" arrival="273.00" arrivalLane="51i_0" arrivalPos="10.00" arrivalSpeed="20.82" duration="174.00" routeLength="596.93" waitingTime="130.00" waitingCount="1" stopTime="0.00" timeLoss="145.04" rerouteNo="0" devices="tripinfo_28" vType="DEFAULT_VEHTYPE" speedFactor="1.13" vaporized=""/>
    <tripinfo id="10" depart="35.00" departLane="54o_0" departPos="5.10" departSpeed="0.00" departDelay="-0.70" arrival="274.00" arrivalLane="52i_0" arrivalPos="10.00" arrivalSpeed="20.13" duration="239.00" routeLength="617.75" waitingTime="195.00" waitingCount="1" stopTime="0.00" timeLoss="208.37" rerouteNo="0" devices="tripinfo_10" vType="DEFAULT_VEHTYPE" speedFactor="1.09" vaporized=""/>
    <tripinfo id="33" depart="117.00" departLane="54o_0" departPos="5.10" departSpeed="0.00" departDelay="-0.81" arrival="274.00" arrivalLane="51i_0" arrivalPos="10.00" arrivalSpeed="22.75" duration="157.00" routeLength="596.93" waitingTime="115.00" waitingCount="1" stopTime="0.00" timeLoss="129.84" rerouteNo="0" devices="tripinfo_33" vType="DEFAULT_VEHTYPE" speedFactor="1.17" vaporized=""/>
    <tripinfo id="29" depart="103.00" departLane="54o_0" departPos="5.10" departSpeed="0.00" departDelay="-0.53" arrival="275.00" arrivalLane="53i_1" arrivalPos="10.00" arrivalSpeed="17.05" duration="172.00" routeLength="615.10" waitingTime="122.00" waitingCount="1" stopTime="0.00" timeLoss="137.64" rerouteNo="0" devices="tripinfo_29" vType="DEFAULT_VEHTYPE" speedFactor="0.93" vaporized=""/>
    <tripinfo id="44" depart="157.00" departLane="54o_0" departPos="5.10" departSpeed="0.00" departDelay="-0.08" arrival="275.00" arrivalLane="53i_2" arrivalPos="10.00" arrivalSpeed="20.14" duration="118.00" routeLength="615.10" waitingTime="73.00" waitingCount="1" stopTime="0.00" timeLoss="87.50" rerouteNo="0" devices="tripinfo_44" vType="DEFAULT_VEHTYPE" speedFactor="1.04" vaporized=""/>
    <tripinfo id="56" depart="199.00" departLane="54o_0" departPos="5.10" departSpeed="0.00" departDelay="-0.92" arrival="277.00" arrivalLane="53i_1" arrivalPos="10.00" arrivalSpeed="16.40" duration="78.00" routeLength="615.10" waitingTime="27.00" waitingCount="1" stopTime="0.00" timeLoss="42.74" rerouteNo="0" devices="tripinfo_56" vType="DEFAULT_VEHTYPE" speedFactor="0.90" vaporized=""/>
    <tripinfo id="42" depart="149.00" departLane="54o_0" departPos="5.10" departSpeed="0.00" departDelay="-0.94" arrival="278.00" arrivalLane="51i_0" arrivalPos="10.00" arrivalSpeed="20.02" duration="129.00" routeLength="596.93" waitingTime="83.00" waitingCount="1" stopTime="0.00" timeLoss="99.18" rerouteNo="0" devices="tripinfo_42" vType="DEFAULT_VEHTYPE" speedFactor="1.09" vaporized=""/>
    <tripinfo id="58" depart="207.00" departLane="54o_0" departPos="5.10" departSpeed="0.00" departDelay="-0.06" arrival="279.00" arrivalLane="53i_1" arrivalPos="10.00" arrivalSpeed="19.44" duration="72.00" routeLength="615.10" waitingTime="20.00" waitingCount="1" stopTime="0.00" timeLoss="40.47" rerouteNo="0" devices="tripinfo_58" vType="DEFAULT_VEHTYPE" speedFactor="1.02" vaporized=""/>
    <tripinfo id="47" depart="167.00" departLane="54o_0" departPos="5.10" departSpeed="0.00" departDelay="-0.79" arrival="282.00" arrivalLane="52i_0" arrivalPos="10.00" arrivalSpeed="16.89" duration="115.00" routeLength="617.75" waitingTime="62.00" waitingCount="1" stopTime="0.00" timeLoss="77.74" rerouteNo="0" devices="tripinfo_47" vType="DEFAULT_VEHTYPE" speedFactor="0.90" vaporized=""/>
    <tripinfo id="50" depart="178.00" departLane="54o_0" departPos="5.10" departSpeed="0.00" departDelay="-0.50" arrival="285.00" arrivalLane="52i_0" arrivalPos="10.00" arrivalSpeed="15.95" duration="107.00" routeLength="617.75" waitingTime="54.00" waitingCount="1" stopTime="0.00" timeLoss="67.64" rerouteNo="0" devices="tripinfo_50" vType="DEFAULT_VEHTYPE" speedFactor="0.85" vaporized=""/>
    <tripinfo id="68" depart="242.00" departLane="54o_0" departPos="5.10" departSpeed="0.00" departDelay="-0.76" arrival="286.00" arrivalLane="52i_0" arrivalPos="10.00" arrivalSpeed="17.64" duration="44.00" routeLength="617.75" waitingTime="0.00" waitingCount="0" stopTime="0.00" timeLoss="12.11" rerouteNo="0" devices="tripinfo_68" vType="DEFAULT_VEHTYPE" speedFactor="1.04" vaporized=""/>
    <tripinfo id="73" depart="260.00" departLane="54o_0" departPos="5.10" departSpeed="0.00" departDelay="-0.61" arrival="301.00" arrivalLane="52i_0" arrivalPos="10.00" arrivalSpeed="20.41" duration="41.00" routeLength="617.75" waitingTime="0.00" waitingCount="0" stopTime="0.00" timeLoss="9.60" rerouteNo="0" devices="tripinfo_73" vType="DEFAULT_VEHTYPE" speedFactor="1.06" vaporized=""/>
    <tripinfo id="75" depart="267.00" departLane="54o_0" departPos="5.10" departSpeed="0.00" departDelay="-0.75" arrival="308.00" arrivalLane="51i_0" arrivalPos="10.00" arrivalSpeed="18.51" duration="41.00" routeLength="596.93" waitingTime="0.00" waitingCount="0" stopTime="0.00" timeLoss="8.75" rerouteNo="0" devices="tripinfo_75" vType="DEFAULT_VEHTYPE" speedFactor="0.98" vaporized=""/>
    <tripinfo id="78" depart="278.00" departLane="54o_0" departPos="5.10" departSpeed="0.00" departDelay="-0.46" arrival="315.00" arrivalLane="53i_0" arrivalPos="10.00" arrivalSpeed="19.23" duration="37.00" routeLength="615.10" waitingTime="0.00" waitingCount="0" stopTime="0.00" timeLoss="4.88" rerouteNo="0" devices="tripinfo_78" vType="DEFAULT_VEHTYPE" speedFactor="1.01" vaporized=""/>
    <tripinfo id="79" depart="282.00" departLane="54o_0" departPos="5.10" departSpeed="0.00" departDelay="-0.03" arrival="321.00" arrivalLane="51i_0" arrivalPos="10.00" arrivalSpeed="20.92" duration="39.00" routeLength="596.93" waitingTime="0.00" waitingCount="0" stopTime="0.00" timeLoss="9.72" rerouteNo="0" devices="tripinfo_79" vType="DEFAULT_VEHTYPE" speedFactor="1.09" vaporized=""/>
    <tripinfo id="84" depart="299.00" departLane="54o_0" departPos="5.10" departSpeed="0.00" departDelay="-0.88" arrival="338.00" arrivalLane="51i_0" arrivalPos="10.00" arrivalSpeed="21.59" duration="39.00" routeLength="596.93" waitingTime="0.00" waitingCount="0" stopTime="0.00" timeLoss="10.84" rerouteNo="0" devices="tripinfo_84" vType="DEFAULT_VEHTYPE" speedFactor="1.15" vaporized=""/>
    <tripinfo id="86" depart="307.00" departLane="54o_0" departPos="5.10" departSpeed="0.00" departDelay="-0.02" arrival="348.00" arrivalLane="51i_0" arrivalPos="10.00" arrivalSpeed="18.54" duration="41.00" routeLength="596.93" waitingTime="0.00" waitingCount="0" stopTime="0.00" timeLoss="9.20" rerouteNo="0" devices="tripinfo_86" vType="DEFAULT_VEHTYPE" speedFactor="1.00" vaporized=""/>
    <tripinfo id="89" depart="317.00" departLane="54o_0" departPos="5.10" departSpeed="0.00" departDelay="-0.73" arrival="357.00" arrivalLane="52i_0" arrivalPos="10.00" arrivalSpeed="18.75" duration="40.00" routeLength="617.75" waitingTime="0.00" waitingCount="0" stopTime="0.00" timeLoss="7.74" rerouteNo="0" devices="tripinfo_89" vType="DEFAULT_VEHTYPE" speedFactor="1.02" vaporized=""/>
    <tripinfo id="7" depart="24.00" departLane="52o_0" departPos="5.10" departSpeed="0.00" departDelay="-0.99" arrival="367.00" arrivalLane="51i_0" arrivalPos="10.00" arrivalSpeed="17.05" duration="343.00" routeLength="615.10" waitingTime="301.00" waitingCount="1" stopTime="0.00" timeLoss="308.76" rerouteNo="0" devices="tripinfo_7" vType="DEFAULT_VEHTYPE" speedFactor="0.89" vaporized=""/>
    <tripinfo id="8" depart="28.00" departLane="52o_0" departPos="5.10" departSpeed="0.00" departDelay="-0.56" arrival="369.00" arrivalLane="51i_1" arrivalPos="10.00" arrivalSpeed="17.36" duration="341.00" routeLength="615.10" waitingTime="301.00" waitingCount="1" stopTime="0.00" timeLoss="308.68" rerouteNo="0" devices="tripinfo_8" vType="DEFAULT_VEHTYPE" speedFactor="0.94" vaporized=""/>
    <tripinfo id="94" depart="335.00" departLane="54o_0" departPos="5.10" departSpeed="0.00" departDelay="-0.58" arrival="373.00" arrivalLane="52i_0" arrivalPos="10.00" arrivalSpeed="20.83" duration="38.00" routeLength="617.75" waitingTime="0.00" waitingCount="0" stopTime="0.00" timeLoss="6.97" rerouteNo="0" devices="tripinfo_94" vType="DEFAULT_VEHTYPE" speedFactor="1.09" vaporized=""/>
    <tripinfo id="11" depart="39.00" departLane="52o_0" departPos="5.10" departSpeed="0.00" departDelay="-0.27" arrival="378.00" arrivalLane="53i_0" arrivalPos="10.00" arrivalSpeed="19.08" duration="339.00" routeLength="617.75" waitingTime="301.00" waitingCount="1" stopTime="0.00" timeLoss="308.99" rerouteNo="0" devices="tripinfo_11" vType="DEFAULT_VEHTYPE" speedFactor="1.03" vaporized=""/>
    <tripinfo id="30" depart="107.00" departLane="52o_0" departPos="5.10" departSpeed="0.00" departDelay="-0.10" arrival="388.00" arrivalLane="54i_0" arrivalPos="10.00" arrivalSpeed="22.06" duration="281.00" routeLength="596.93" waitingTime="236.00" waitingCount="2" stopTime="0.00" timeLoss="254.08" rerouteNo="0" devices="tripinfo_30" vType="DEFAULT_VEHTYPE" speedFactor="1.18" vaporized=""/>
    <tripinfo id="19" depart="67.00" departLane="52o_0" departPos="5.10" departSpeed="0.00" departDelay="-0.83" arrival="389.00" arrivalLane="51i_0" arrivalPos="10.00" arrivalSpeed="21.97" duration="322.00" routeLength="615.10" waitingTime="273.00" waitingCount="2" stopTime="0.00" timeLoss="294.63" rerouteNo="0" devices="tripinfo_19" vType="DEFAULT_VEHTYPE" speedFactor="1.16" vaporized=""/>
    <tripinfo id="14" depart="49.00" departLane="52o_0" departPos="5.10" departSpeed="0.00" departDelay="-0.98" arrival="392.00" arrivalLane="53i_0" arrivalPos="10.00" arrivalSpeed="18.24" duration="343.00" routeLength="617.75" waitingTime="292.00" waitingCount="2" stopTime="0.00" timeLoss="309.81" rerouteNo="0" devices="tripinfo_14" vType="DEFAULT_VEHTYPE" speedFactor="0.99" vaporized=""/>
    <tripinfo id="46" depart="164.00" departLane="52o_0" departPos="5.10" departSpeed="0.00" departDelay="-0.22" arrival="393.00" arrivalLane="51i_1" arrivalPos="10.00" arrivalSpeed="19.24" duration="229.00" routeLength="615.10" waitingTime="177.00" waitingCount="2" stopTime="0.00" timeLoss="197.00" rerouteNo="0" devices="tripinfo_46" vType="DEFAULT_VEHTYPE" speedFactor="1.00" vaporized=""/>
    <tripinfo id="27" depart="96.00" departLane="52o_0" departPos="5.10" departSpeed="0.00" departDelay="-0.39" arrival="394.00" arrivalLane="51i_0" arrivalPos="10.00" arrivalSpeed="17.41" duration="298.00" routeLength="615.10" waitingTime="245.00" waitingCount="2" stopTime="0.00" timeLoss="263.97" rerouteNo="0" devices="tripinfo_27" vType="DEFAULT_VEHTYPE" speedFactor="0.95" vaporized=""/>
    <tripinfo id="36" depart="128.00" departLane="52o_0" departPos="5.10" departSpeed="0.00" departDelay="-0.52" arrival="396.00" arrivalLane="54i_0" arrivalPos="10.00" arrivalSpeed="17.72" duration="268.00" routeLength="596.93" waitingTime="217.00" waitingCount="2" stopTime="0.00" timeLoss="235.25" rerouteNo="0" devices="tripinfo_36" vType="DEFAULT_VEHTYPE" speedFactor="0.97" vaporized=""/>
    <tripinfo id="16" depart="57.00" departLane="52o_0" departPos="5.10" departSpeed="0.00" departDelay="-0.12" arrival="397.00" arrivalLane="53i_0" arrivalPos="10.00" arrivalSpeed="16.32" duration="340.00" routeLength="617.75" waitingTime="283.00" waitingCount="2" stopTime="0.00" timeLoss="301.96" rerouteNo="0" devices="tripinfo_16" vType="DEFAULT_VEHTYPE" speedFactor="0.88" vaporized=""/>
    <tripinfo id="18" depart="64.00" departLane="52o_0" departPos="5.10" departSpeed="0.00" departDelay="-0.26" arrival="398.00" arrivalLane="53i_0" arrivalPos="10.00" arrivalSpeed="16.99" duration="334.00" routeLength="617.75" waitingTime="279.00" waitingCount="2" stopTime="0.00" timeLoss="298.88" rerouteNo="0" devices="tripinfo_18" vType="DEFAULT_VEHTYPE" speedFactor="0.94" vaporized=""/>
    <tripinfo id="37" depart="132.00" departLane="52o_0" departPos="5.10" departSpeed="0.00" departDelay="-0.09" arrival="398.00" arrivalLane="54i_0" arrivalPos="10.00" arrivalSpeed="22.63" duration="266.00" routeLength="596.93" waitingTime="213.00" waitingCount="2" stopTime="0.00" timeLoss="238.34" rerouteNo="0" devices="tripinfo_37" vType="DEFAULT_VEHTYPE" speedFactor="1.18" vaporized=""/>
    <tripinfo id="48" depart="171.00" departLane="52o_0" departPos="5.10" departSpeed="0.00" departDelay="-0.36" arrival="398.00" arrivalLane="51i_1" arrivalPos="10.00" arrivalSpeed="15.95" duration="227.00" routeLength="615.10" waitingTime="172.00" waitingCount="2" stopTime="0.00" timeLoss="189.99" rerouteNo="0" devices="tripinfo_48" vType="DEFAULT_VEHTYPE" speedFactor="0.88" vaporized=""/>
    <tripinfo id="22" depart="78.00" departLane="52o_0" departPos="5.10" departSpeed="0.00" departDelay="-0.54" arrival="400.00" arrivalLane="53i_0" arrivalPos="10.00" arrivalSpeed="18.87" duration="322.00" routeLength="617.75" waitingTime="267.00" waitingCount="2" stopTime="0.00" timeLoss="288.07" rerouteNo="0" devices="tripinfo_22" vType="DEFAULT_VEHTYPE" speedFactor="0.98" vaporized=""/>
    <tripinfo id="40" depart="142.00" departLane="52o_0" departPos="5.10" departSpeed="0.00" departDelay="-0.80" arrival="400.00" arrivalLane="54i_0" arrivalPos="10.00" arrivalSpeed="18.86" duration="258.00" routeLength="596.93" waitingTime="205.00" waitingCount="2" stopTime="0.00" timeLoss="226.68" rerouteNo="0" devices="tripinfo_40" vType="DEFAULT_VEHTYPE" speedFactor="1.03" vaporized=""/>
    <tripinfo id="49" depart="174.00" departLane="52o_0" departPos="5.10" departSpeed="0.00" departDelay="-0.93" arrival="400.00" arrivalLane="51i_1" arrivalPos="10.00" arrivalSpeed="16.52" duration="226.00" routeLength="615.10" waitingTime="167.00" waitingCount="2" stopTime="0.00" timeLoss="187.91" rerouteNo="0" devices="tripinfo_49" vType="DEFAULT_VEHTYPE" speedFactor="0.85" vaporized=""/>
    <tripinfo id="77" depart="274.00" departLane="52o_0" departPos="5.10" departSpeed="0.00" departDelay="-0.89" arrival="401.00" arrivalLane="51i_1" arrivalPos="10.00" arrivalSpeed="17.24" duration="127.00" routeLength="615.10" waitingTime="68.00" waitingCount="2" stopTime="0.00" timeLoss="94.54" rerouteNo="0" devices="tripinfo_77" vType="DEFAULT_VEHTYPE" speedFactor="0.98" vaporized=""/>
    <tripinfo id="38" depart="135.00" departLane="52o_0" departPos="5.10" departSpeed="0.00" departDelay="-0.66" arrival="402.00" arrivalLane="53i_0" arrivalPos="10.00" arrivalSpeed="20.95" duration="267.00" routeLength="617.75" waitingTime="211.00" waitingCount="1" stopTime="0.00" timeLoss="236.44" rerouteNo="0" devices="tripinfo_38" vType="DEFAULT_VEHTYPE" speedFactor="1.10" vaporized=""/>
    <tripinfo id="43" depart="153.00" departLane="52o_0" departPos="5.10" departSpeed="0.00" departDelay="-0.51" arrival="403.00" arrivalLane="54i_0" arrivalPos="10.00" arrivalSpeed="19.76" duration="250.00" routeLength="596.93" waitingTime="194.00" waitingCount="2" stopTime="0.00" timeLoss="219.22" rerouteNo="0" devices="tripinfo_43" vType="DEFAULT_VEHTYPE" speedFactor="1.04" vaporized=""/>
    <tripinfo id="88" depart="314.00" departLane="52o_0" departPos="5.10" departSpeed="0.00" departDelay="-0.16" arrival="403.00" arrivalLane="51i_1" arrivalPos="10.00" arrivalSpeed="19.37" duration="89.00" routeLength="615.10" waitingTime="27.00" waitingCount="2" stopTime="0.00" timeLoss="56.88" rerouteNo="0" devices="tripinfo_88" vType="DEFAULT_VEHTYPE" speedFactor="1.01" vaporized=""/>
    <tripinfo id="53" depart="189.00" departLane="52o_0" departPos="5.10" departSpeed="0.00" departDelay="-0.21" arrival="404.00" arrivalLane="53i_0" arrivalPos="10.00" arrivalSpeed="20.12" duration="215.00" routeLength="617.75" waitingTime="158.00" waitingCount="1" stopTime="0.00" timeLoss="184.17" rerouteNo="0" devices="tripinfo_53" vType="DEFAULT_VEHTYPE" speedFactor="1.10" vaporized=""/>
    <tripinfo id="96" depart="342.00" departLane="52o_0" departPos="5.10" departSpeed="0.00" departDelay="-0.72" arrival="404.00" arrivalLane="51i_1" arrivalPos="10.00" arrivalSpeed="19.35" duration="62.00" routeLength="615.10" waitingTime="9.00" waitingCount="1" stopTime="0.00" timeLoss="30.52" rerouteNo="0" devices="tripinfo_96" vType="DEFAULT_VEHTYPE" speedFactor="1.01" vaporized=""/>
    <tripinfo id="62" depart="221.00" departLane="52o_0" departPos="5.10" departSpeed="0.00" departDelay="-0.34" arrival="405.00" arrivalLane="54i_0" arrivalPos="10.00" arrivalSpeed="18.97" duration="184.00" routeLength="596.93" waitingTime="127.00" waitingCount="2" stopTime="0.00" timeLoss="152.56" rerouteNo="0" devices="tripinfo_62" vType="DEFAULT_VEHTYPE" speedFactor="1.02" vaporized=""/>
    <tripinfo id="54" depart="192.00" departLane="52o_0" departPos="5.10" departSpeed="0.00" departDelay="-0.78" arrival="407.00" arrivalLane="53i_0" arrivalPos="10.00" arrivalSpeed="19.05" duration="215.00" routeLength="617.75" waitingTime="156.00" waitingCount="1" stopTime="0.00" timeLoss="181.55" rerouteNo="0" devices="tripinfo_54" vType="DEFAULT_VEHTYPE" speedFactor="1.00" vaporized=""/>
    <tripinfo id="70" depart="249.00" departLane="52o_0" departPos="5.10" departSpeed="0.00" departDelay="-0.90" arrival="408.00" arrivalLane="54i_0" arrivalPos="10.00" arrivalSpeed="19.61" duration="159.00" routeLength="596.93" waitingTime="98.00" waitingCount="2" stopTime="0.00" timeLoss="126.99" rerouteNo="0" devices="tripinfo_70" vType="DEFAULT_VEHTYPE" speedFactor="1.02" vaporized=""/>
    <tripinfo id="80" depart="285.00" departLane="52o_0" departPos="5.10" departSpeed="0.00" departDelay="-0.60" arrival="410.00" arrivalLane="54i_0" arrivalPos="10.00" arrivalSpeed="19.28" duration="125.00" routeLength="596.93" waitingTime="63.00" waitingCount="2" stopTime="0.00" timeLoss="93.99" rerouteNo="0" devices="tripinfo_80" vType="DEFAULT_VEHTYPE" speedFactor="1.03" vaporized=""/>
    <tripinfo id="74" depart="264.00" departLane="52o_0" departPos="5.10" departSpeed="0.00" departDelay="-0.18" arrival="411.00" arrivalLane="53i_0" arrivalPos="10.00" arrivalSpeed="18.44" duration="147.00" routeLength="617.75" waitingTime="85.00" waitingCount="1" stopTime="0.00" timeLoss="112.03" rerouteNo="0" devices="tripinfo_74" vType="DEFAULT_VEHTYPE" speedFactor="0.96" vaporized=""/>
    <tripinfo id="103" depart="367.00" departLane="52o_0" departPos="5.10" departSpeed="0.00" departDelay="-0.71" arrival="412.00" arrivalLane="51i_1" arrivalPos="10.00" arrivalSpeed="18.21" duration="45.00" routeLength="615.10" waitingTime="0.00" waitingCount="0" stopTime="0.00" timeLoss="11.20" rerouteNo="0" devices="tripinfo_103" vType="DEFAULT_VEHTYPE" speedFactor="0.95" vaporized=""/>
    <tripinfo id="87" depart="310.00" departLane="52o_0" departPos="5.10" departSpeed="0.00" departDelay="-0.59" arrival="413.00" arrivalLane="54i_0" arrivalPos="10.00" arrivalSpeed="19.80" duration="103.00" routeLength="596.93" waitingTime="39.00" waitingCount="2" stopTime="0.00" timeLoss="71.61" rerouteNo="0" devices="tripinfo_87" vType="DEFAULT_VEHTYPE" speedFactor="1.04" vaporized=""/>
    <tripinfo id="97" depart="346.00" departLane="52o_0" departPos="5.10" departSpeed="0.00" departDelay="-0.29" arrival="413.00" arrivalLane="53i_0" arrivalPos="10.00" arrivalSpeed="16.54" duration="67.00" routeLength="617.75" waitingTime="4.00" waitingCount="1" stopTime="0.00" timeLoss="30.64" rerouteNo="0" devices="tripinfo_97" vType="DEFAULT_VEHTYPE" speedFactor="0.91" vaporized=""/>
    <tripinfo id="95" depart="339.00" departLane="52o_0" departPos="5.10" departSpeed="0.00" departDelay="-0.15" arrival="415.00" arrivalLane="54i_0" arrivalPos="10.00" arrivalSpeed="20.54" duration="76.00" routeLength="596.93" waitingTime="12.00" waitingCount="2" stopTime="0.00" timeLoss="45.32" rerouteNo="0" devices="tripinfo_95" vType="DEFAULT_VEHTYPE" speedFactor="1.06" vaporized=""/>