<?xml version="1.0" encoding="UTF-8"?>

<!-- generated on Fri Nov  8 01:39:44 2019 by Eclipse SUMO Version 1.2.0
<configuration xmlns:xsi="http://www.w3.org/2001/XMLSchema-instance" xsi:noNamespaceSchemaLocation="http://sumo.dlr.de/xsd/sumoConfiguration.xsd">

    <input>
        <net-file value="simulation_files/sumocfgs/../networks/isolated_3_lanes_4_stages.net.xml"/>
        <route-files value="simulation_files/sumocfgs/../routes/isolated_3_lanes_20p.rou.xml"/>
    </input>

    <output>
        <tripinfo-output value="./output/exp21_rf_20p/delay_pwtl__3_tripinfo_isolated.xml"/>
    </output>

    <time>
        <begin value="0"/>
        <step-length value="1"/>
    </time>

    <report>
        <verbose value="true"/>
        <no-step-log value="true"/>
    </report>

    <gui_only>
        <tracker-interval value="1"/>
    </gui_only>

</configuration>
-->

<tripinfos xmlns:xsi="http://www.w3.org/2001/XMLSchema-instance" xsi:noNamespaceSchemaLocation="http://sumo.dlr.de/xsd/tripinfo_file.xsd">
    <tripinfo id="2" depart="7.00" departLane="52o_0" departPos="5.10" departSpeed="0.00" departDelay="-0.14" arrival="48.00" arrivalLane="54i_0" arrivalPos="10.00" arrivalSpeed="19.14" duration="41.00" routeLength="596.93" waitingTime="0.00" waitingCount="0" stopTime="0.00" timeLoss="9.18" rerouteNo="0" devices="tripinfo_2" vType="DEFAULT_VEHTYPE" speedFactor="1.01" vaporized=""/>
    <tripinfo id="6" depart="21.00" departLane="52o_0" departPos="5.10" departSpeed="0.00" departDelay="-0.42" arrival="57.00" arrivalLane="51i_0" arrivalPos="10.00" arrivalSpeed="19.72" duration="36.00" routeLength="615.10" waitingTime="0.00" waitingCount="0" stopTime="0.00" timeLoss="5.27" rerouteNo="0" devices="tripinfo_6" vType="DEFAULT_VEHTYPE" speedFactor="1.05" vaporized=""/>
    <tripinfo id="5" depart="17.00" departLane="52o_0" departPos="5.10" departSpeed="0.00" departDelay="-0.85" arrival="64.00" arrivalLane="53i_0" arrivalPos="10.00" arrivalSpeed="15.40" duration="47.00" routeLength="617.75" waitingTime="0.00" waitingCount="0" stopTime="0.00" timeLoss="6.74" rerouteNo="0" devices="tripinfo_5" vType="DEFAULT_VEHTYPE" speedFactor="0.83" vaporized=""/>
    <tripinfo id="7" depart="24.00" departLane="52o_0" departPos="5.10" departSpeed="0.00" departDelay="-0.99" arrival="66.00" arrivalLane="51i_0" arrivalPos="10.00" arrivalSpeed="16.20" duration="42.00" routeLength="615.10" waitingTime="0.00" waitingCount="0" stopTime="0.00" timeLoss="5.58" rerouteNo="0" devices="tripinfo_7" vType="DEFAULT_VEHTYPE" speedFactor="0.89" vaporized=""/>
    <tripinfo id="8" depart="28.00" departLane="52o_0" departPos="5.10" departSpeed="0.00" departDelay="-0.56" arrival="67.00" arrivalLane="51i_0" arrivalPos="10.00" arrivalSpeed="17.67" duration="39.00" routeLength="615.10" waitingTime="0.00" waitingCount="0" stopTime="0.00" timeLoss="5.05" rerouteNo="0" devices="tripinfo_8" vType="DEFAULT_VEHTYPE" speedFactor="0.94" vaporized=""/>
    <tripinfo id="0" depart="0.00" departLane="53o_0" departPos="5.10" departSpeed="0.00" departDelay="0.00" arrival="75.00" arrivalLane="52i_0" arrivalPos="10.00" arrivalSpeed="19.38" duration="75.00" routeLength="596.93" waitingTime="32.00" waitingCount="1" stopTime="0.00" timeLoss="44.95" rerouteNo="0" devices="tripinfo_0" vType="DEFAULT_VEHTYPE" speedFactor="1.06" vaporized=""/>
    <tripinfo id="12" depart="42.00" departLane="53o_0" departPos="5.10" departSpeed="0.00" departDelay="-0.84" arrival="78.00" arrivalLane="54i_0" arrivalPos="10.00" arrivalSpeed="19.76" duration="36.00" routeLength="615.10" waitingTime="0.00" waitingCount="0" stopTime="0.00" timeLoss="5.39" rerouteNo="0" devices="tripinfo_12" vType="DEFAULT_VEHTYPE" speedFactor="1.05" vaporized=""/>
    <tripinfo id="15" depart="53.00" departLane="53o_0" departPos="5.10" departSpeed="0.00" departDelay="-0.55" arrival="93.00" arrivalLane="54i_0" arrivalPos="10.00" arrivalSpeed="17.03" duration="40.00" routeLength="615.10" waitingTime="0.00" waitingCount="0" stopTime="0.00" timeLoss="5.46" rerouteNo="0" devices="tripinfo_15" vType="DEFAULT_VEHTYPE" speedFactor="0.93" vaporized=""/>
    <tripinfo id="1" depart="3.00" departLane="51o_0" departPos="5.10" departSpeed="0.00" departDelay="-0.57" arrival="105.00" arrivalLane="53i_0" arrivalPos="10.00" arrivalSpeed="17.74" duration="102.00" routeLength="596.93" waitingTime="55.00" waitingCount="1" stopTime="0.00" timeLoss="68.34" rerouteNo="0" devices="tripinfo_1" vType="DEFAULT_VEHTYPE" speedFactor="0.94" vaporized=""/>
    <tripinfo id="13" depart="46.00" departLane="51o_0" departPos="5.10" departSpeed="0.00" departDelay="-0.41" arrival="107.00" arrivalLane="53i_0" arrivalPos="10.00" arrivalSpeed="21.78" duration="61.00" routeLength="596.93" waitingTime="16.00" waitingCount="1" stopTime="0.00" timeLoss="31.87" rerouteNo="0" devices="tripinfo_13" vType="DEFAULT_VEHTYPE" speedFactor="1.12" vaporized=""/>
    <tripinfo id="9" depart="32.00" departLane="51o_0" departPos="5.10" departSpeed="0.00" departDelay="-0.13" arrival="109.00" arrivalLane="54i_0" arrivalPos="10.00" arrivalSpeed="16.41" duration="77.00" routeLength="617.75" waitingTime="25.00" waitingCount="1" stopTime="0.00" timeLoss="37.92" rerouteNo="0" devices="tripinfo_9" vType="DEFAULT_VEHTYPE" speedFactor="0.86" vaporized=""/>
    <tripinfo id="21" depart="74.00" departLane="51o_0" departPos="5.10" departSpeed="0.00" departDelay="-0.97" arrival="115.00" arrivalLane="53i_0" arrivalPos="10.00" arrivalSpeed="18.92" duration="41.00" routeLength="596.93" waitingTime="0.00" waitingCount="0" stopTime="0.00" timeLoss="9.91" rerouteNo="0" devices="tripinfo_21" vType="DEFAULT_VEHTYPE" speedFactor="1.01" vaporized=""/>
    <tripinfo id="23" depart="82.00" departLane="51o_0" departPos="5.10" departSpeed="0.00" departDelay="-0.11" arrival="126.00" arrivalLane="53i_0" arrivalPos="10.00" arrivalSpeed="17.19" duration="44.00" routeLength="596.93" waitingTime="0.00" waitingCount="0" stopTime="0.00" timeLoss="8.69" rerouteNo="0" devices="tripinfo_23" vType="DEFAULT_VEHTYPE" speedFactor="0.89" vaporized=""/>
    <tripinfo id="25" depart="89.00" departLane="51o_0" departPos="5.10" departSpeed="0.00" departDelay="-0.25" arrival="134.00" arrivalLane="54i_0" arrivalPos="10.00" arrivalSpeed="16.63" duration="45.00" routeLength="617.75" waitingTime="0.00" waitingCount="0" stopTime="0.00" timeLoss="6.70" rerouteNo="0" devices="tripinfo_25" vType="DEFAULT_VEHTYPE" speedFactor="0.87" vaporized=""/>
    <tripinfo id="26" depart="92.00" departLane="51o_0" departPos="5.10" departSpeed="0.00" departDelay="-0.82" arrival="135.00" arrivalLane="53i_0" arrivalPos="10.00" arrivalSpeed="17.39" duration="43.00" routeLength="596.93" waitingTime="0.00" waitingCount="0" stopTime="0.00" timeLoss="8.19" rerouteNo="0" devices="tripinfo_26" vType="DEFAULT_VEHTYPE" speedFactor="0.92" vaporized=""/>
    <tripinfo id="3" depart="10.00" departLane="54o_0" departPos="5.10" departSpeed="0.00" departDelay="-0.71" arrival="169.00" arrivalLane="53i_0" arrivalPos="10.00" arrivalSpeed="19.86" duration="159.00" routeLength="615.10" waitingTime="115.00" waitingCount="1" stopTime="0.00" timeLoss="129.07" rerouteNo="0" devices="tripinfo_3" vType="DEFAULT_VEHTYPE" speedFactor="1.08" vaporized=""/>
    <tripinfo id="4" depart="14.00" departLane="54o_0" departPos="5.10" departSpeed="0.00" departDelay="-0.28" arrival="170.00" arrivalLane="52i_0" arrivalPos="10.00" arrivalSpeed="19.65" duration="156.00" routeLength="617.75" waitingTime="111.00" waitingCount="1" stopTime="0.00" timeLoss="123.90" rerouteNo="0" devices="tripinfo_4" vType="DEFAULT_VEHTYPE" speedFactor="1.03" vaporized=""/>
    <tripinfo id="20" depart="71.00" departLane="54o_0" departPos="5.10" departSpeed="0.00" departDelay="-0.40" arrival="170.00" arrivalLane="53i_1" arrivalPos="10.00" arrivalSpeed="19.34" duration="99.00" routeLength="615.10" waitingTime="54.00" waitingCount="1" stopTime="0.00" timeLoss="67.00" rerouteNo="0" devices="tripinfo_20" vType="DEFAULT_VEHTYPE" speedFactor="1.02" vaporized=""/>
    <tripinfo id="28" depart="99.00" departLane="54o_0" departPos="5.10" departSpeed="0.00" departDelay="-0.96" arrival="170.00" arrivalLane="51i_0" arrivalPos="10.00" arrivalSpeed="21.55" duration="71.00" routeLength="596.93" waitingTime="28.00" waitingCount="1" stopTime="0.00" timeLoss="42.65" rerouteNo="0" devices="tripinfo_28" vType="DEFAULT_VEHTYPE" speedFactor="1.13" vaporized=""/>
    <tripinfo id="10" depart="35.00" departLane="54o_0" departPos="5.10" departSpeed="0.00" departDelay="-0.70" arrival="172.00" arrivalLane="52i_0" arrivalPos="10.00" arrivalSpeed="20.10" duration="137.00" routeLength="617.75" waitingTime="93.00" waitingCount="1" stopTime="0.00" timeLoss="106.06" rerouteNo="0" devices="tripinfo_10" vType="DEFAULT_VEHTYPE" speedFactor="1.09" vaporized=""/>
    <tripinfo id="33" depart="117.00" departLane="54o_0" departPos="5.10" departSpeed="0.00" departDelay="-0.81" arrival="172.00" arrivalLane="51i_0" arrivalPos="10.00" arrivalSpeed="22.44" duration="55.00" routeLength="596.93" waitingTime="13.00" waitingCount="1" stopTime="0.00" timeLoss="27.02" rerouteNo="0" devices="tripinfo_33" vType="DEFAULT_VEHTYPE" speedFactor="1.17" vaporized=""/>
    <tripinfo id="29" depart="103.00" departLane="54o_0" departPos="5.10" departSpeed="0.00" departDelay="-0.53" arrival="173.00" arrivalLane="53i_1" arrivalPos="10.00" arrivalSpeed="17.00" duration="70.00" routeLength="615.10" waitingTime="20.00" waitingCount="1" stopTime="0.00" timeLoss="35.91" rerouteNo="0" devices="tripinfo_29" vType="DEFAULT_VEHTYPE" speedFactor="0.93" vaporized=""/>
    <tripinfo id="42" depart="149.00" departLane="54o_0" departPos="5.10" departSpeed="0.00" departDelay="-0.94" arrival="188.00" arrivalLane="51i_0" arrivalPos="10.00" arrivalSpeed="20.24" duration="39.00" routeLength="596.93" waitingTime="0.00" waitingCount="0" stopTime="0.00" timeLoss="9.78" rerouteNo="0" devices="tripinfo_42" vType="DEFAULT_VEHTYPE" speedFactor="1.09" vaporized=""/>
    <tripinfo id="44" depart="157.00" departLane="54o_0" departPos="5.10" departSpeed="0.00" departDelay="-0.08" arrival="194.00" arrivalLane="53i_0" arrivalPos="10.00" arrivalSpeed="19.33" duration="37.00" routeLength="615.10" waitingTime="0.00" waitingCount="0" stopTime="0.00" timeLoss="5.86" rerouteNo="0" devices="tripinfo_44" vType="DEFAULT_VEHTYPE" speedFactor="1.04" vaporized=""/>
    <tripinfo id="47" depart="167.00" departLane="54o_0" departPos="5.10" departSpeed="0.00" departDelay="-0.79" arrival="212.00" arrivalLane="52i_0" arrivalPos="10.00" arrivalSpeed="16.96" duration="45.00" routeLength="617.75" waitingTime="0.00" waitingCount="0" stopTime="0.00" timeLoss="7.51" rerouteNo="0" devices="tripinfo_47" vType="DEFAULT_VEHTYPE" speedFactor="0.90" vaporized=""/>
    <tripinfo id="50" depart="178.00" departLane="54o_0" departPos="5.10" departSpeed="0.00" departDelay="-0.50" arrival="223.00" arrivalLane="52i_0" arrivalPos="10.00" arrivalSpeed="15.58" duration="45.00" routeLength="617.75" waitingTime="0.00" waitingCount="0" stopTime="0.00" timeLoss="6.38" rerouteNo="0" devices="tripinfo_50" vType="DEFAULT_VEHTYPE" speedFactor="0.85" vaporized=""/>
    <tripinfo id="56" depart="199.00" departLane="54o_0" departPos="5.10" departSpeed="0.00" departDelay="-0.92" arrival="240.00" arrivalLane="53i_0" arrivalPos="10.00" arrivalSpeed="16.45" duration="41.00" routeLength="615.10" waitingTime="0.00" waitingCount="0" stopTime="0.00" timeLoss="5.54" rerouteNo="0" devices="tripinfo_56" vType="DEFAULT_VEHTYPE" speedFactor="0.90" vaporized=""/>
    <tripinfo id="58" depart="207.00" departLane="54o_0" departPos="5.10" departSpeed="0.00" departDelay="-0.06" arrival="244.00" arrivalLane="53i_0" arrivalPos="10.00" arrivalSpeed="19.47" duration="37.00" routeLength="615.10" waitingTime="0.00" waitingCount="0" stopTime="0.00" timeLoss="5.33" rerouteNo="0" devices="tripinfo_58" vType="DEFAULT_VEHTYPE" speedFactor="1.02" vaporized=""/>
    <tripinfo id="11" depart="39.00" departLane="52o_0" departPos="5.10" departSpeed="0.00" departDelay="-0.27" arrival="271.00" arrivalLane="53i_0" arrivalPos="10.00" arrivalSpeed="19.88" duration="232.00" routeLength="617.75" waitingTime="188.00" waitingCount="1" stopTime="0.00" timeLoss="199.84" rerouteNo="0" devices="tripinfo_11" vType="DEFAULT_VEHTYPE" speedFactor="1.03" vaporized=""/>
    <tripinfo id="30" depart="107.00" departLane="52o_0" departPos="5.10" departSpeed="0.00" departDelay="-0.10" arrival="271.00" arrivalLane="54i_0" arrivalPos="10.00" arrivalSpeed="22.14" duration="164.00" routeLength="596.93" waitingTime="121.00" waitingCount="1" stopTime="0.00" timeLoss="136.89" rerouteNo="0" devices="tripinfo_30" vType="DEFAULT_VEHTYPE" speedFactor="1.18" vaporized=""/>
    <tripinfo id="19" depart="67.00" departLane="52o_0" departPos="5.10" departSpeed="0.00" departDelay="-0.83" arrival="272.00" arrivalLane="51i_0" arrivalPos="10.00" arrivalSpeed="17.15" duration="205.00" routeLength="615.10" waitingTime="158.00" waitingCount="1" stopTime="0.00" timeLoss="177.65" rerouteNo="0" devices="tripinfo_19" vType="DEFAULT_VEHTYPE" speedFactor="1.16" vaporized=""/>
    <tripinfo id="27" depart="96.00" departLane="52o_0" departPos="5.10" departSpeed="0.00" departDelay="-0.39" arrival="272.00" arrivalLane="51i_1" arrivalPos="10.00" arrivalSpeed="17.57" duration="176.00" routeLength="615.10" waitingTime="128.00" waitingCount="1" stopTime="0.00" timeLoss="141.72" rerouteNo="0" devices="tripinfo_27" vType="DEFAULT_VEHTYPE" speedFactor="0.95" vaporized=""/>
    <tripinfo id="46" depart="164.00" departLane="52o_0" departPos="5.10" departSpeed="0.00" departDelay="-0.22" arrival="273.00" arrivalLane="51i_1" arrivalPos="10.00" arrivalSpeed="19.30" duration="109.00" routeLength="615.10" waitingTime="61.00" waitingCount="1" stopTime="0.00" timeLoss="76.91" rerouteNo="0" devices="tripinfo_46" vType="DEFAULT_VEHTYPE" speedFactor="1.00" vaporized=""/>
    <tripinfo id="14" depart="49.00" departLane="52o_0" departPos="5.10" departSpeed="0.00" departDelay="-0.98" arrival="274.00" arrivalLane="53i_0" arrivalPos="10.00" arrivalSpeed="18.84" duration="225.00" routeLength="617.75" waitingTime="179.00" waitingCount="1" stopTime="0.00" timeLoss="191.19" rerouteNo="0" devices="tripinfo_14" vType="DEFAULT_VEHTYPE" speedFactor="0.99" vaporized=""/>
    <tripinfo id="36" depart="128.00" departLane="52o_0" departPos="5.10" departSpeed="0.00" departDelay="-0.52" arrival="276.00" arrivalLane="54i_0" arrivalPos="10.00" arrivalSpeed="18.88" duration="148.00" routeLength="596.93" waitingTime="101.00" waitingCount="1" stopTime="0.00" timeLoss="115.10" rerouteNo="0" devices="tripinfo_36" vType="DEFAULT_VEHTYPE" speedFactor="0.97" vaporized=""/>
    <tripinfo id="48" depart="171.00" departLane="52o_0" departPos="5.10" departSpeed="0.00" departDelay="-0.36" arrival="277.00" arrivalLane="51i_1" arrivalPos="10.00" arrivalSpeed="15.95" duration="106.00" routeLength="615.10" waitingTime="57.00" waitingCount="1" stopTime="0.00" timeLoss="69.19" rerouteNo="0" devices="tripinfo_48" vType="DEFAULT_VEHTYPE" speedFactor="0.88" vaporized=""/>
    <tripinfo id="37" depart="132.00" departLane="52o_0" departPos="5.10" departSpeed="0.00" departDelay="-0.09" arrival="278.00" arrivalLane="54i_0" arrivalPos="10.00" arrivalSpeed="22.53" duration="146.00" routeLength="596.93" waitingTime="98.00" waitingCount="1" stopTime="0.00" timeLoss="118.67" rerouteNo="0" devices="tripinfo_37" vType="DEFAULT_VEHTYPE" speedFactor="1.18" vaporized=""/>
    <tripinfo id="16" depart="57.00" departLane="52o_0" departPos="5.10" departSpeed="0.00" departDelay="-0.12" arrival="279.00" arrivalLane="53i_0" arrivalPos="10.00" arrivalSpeed="16.42" duration="222.00" routeLength="617.75" waitingTime="170.00" waitingCount="1" stopTime="0.00" timeLoss="184.09" rerouteNo="0" devices="tripinfo_16" vType="DEFAULT_VEHTYPE" speedFactor="0.88" vaporized=""/>
    <tripinfo id="49" depart="174.00" departLane="52o_0" departPos="5.10" departSpeed="0.00" departDelay="-0.93" arrival="279.00" arrivalLane="51i_1" arrivalPos="10.00" arrivalSpeed="16.52" duration="105.00" routeLength="615.10" waitingTime="54.00" waitingCount="1" stopTime="0.00" timeLoss="67.39" rerouteNo="0" devices="tripinfo_49" vType="DEFAULT_VEHTYPE" speedFactor="0.85" vaporized=""/>
    <tripinfo id="18" depart="64.00" departLane="52o_0" departPos="5.10" departSpeed="0.00" departDelay="-0.26" arrival="280.00" arrivalLane="53i_0" arrivalPos="10.00" arrivalSpeed="17.42" duration="216.00" routeLength="617.75" waitingTime="166.00" waitingCount="1" stopTime="0.00" timeLoss="180.86" rerouteNo="0" devices="tripinfo_18" vType="DEFAULT_VEHTYPE" speedFactor="0.94" vaporized=""/>
    <tripinfo id="40" depart="142.00" departLane="52o_0" departPos="5.10" departSpeed="0.00" departDelay="-0.80" arrival="281.00" arrivalLane="54i_0" arrivalPos="10.00" arrivalSpeed="18.86" duration="139.00" routeLength="596.93" waitingTime="90.00" waitingCount="1" stopTime="0.00" timeLoss="107.42" rerouteNo="0" devices="tripinfo_40" vType="DEFAULT_VEHTYPE" speedFactor="1.03" vaporized=""/>
    <tripinfo id="22" depart="78.00" departLane="52o_0" departPos="5.10" departSpeed="0.00" departDelay="-0.54" arrival="282.00" arrivalLane="53i_0" arrivalPos="10.00" arrivalSpeed="18.61" duration="204.00" routeLength="617.75" waitingTime="153.00" waitingCount="1" stopTime="0.00" timeLoss="169.92" rerouteNo="0" devices="tripinfo_22" vType="DEFAULT_VEHTYPE" speedFactor="0.98" vaporized=""/>
    <tripinfo id="43" depart="153.00" departLane="52o_0" departPos="5.10" departSpeed="0.00" departDelay="-0.51" arrival="283.00" arrivalLane="54i_0" arrivalPos="10.00" arrivalSpeed="20.00" duration="130.00" routeLength="596.93" waitingTime="80.00" waitingCount="1" stopTime="0.00" timeLoss="99.38" rerouteNo="0" devices="tripinfo_43" vType="DEFAULT_VEHTYPE" speedFactor="1.04" vaporized=""/>
    <tripinfo id="38" depart="135.00" departLane="52o_0" departPos="5.10" departSpeed="0.00" departDelay="-0.66" arrival="284.00" arrivalLane="53i_0" arrivalPos="10.00" arrivalSpeed="20.56" duration="149.00" routeLength="617.75" waitingTime="98.00" waitingCount="1" stopTime="0.00" timeLoss="118.37" rerouteNo="0" devices="tripinfo_38" vType="DEFAULT_VEHTYPE" speedFactor="1.10" vaporized=""/>
    <tripinfo id="53" depart="189.00" departLane="52o_0" departPos="5.10" departSpeed="0.00" departDelay="-0.21" arrival="285.00" arrivalLane="53i_0" arrivalPos="10.00" arrivalSpeed="20.85" duration="96.00" routeLength="617.75" waitingTime="46.00" waitingCount="1" stopTime="0.00" timeLoss="65.69" rerouteNo="0" devices="tripinfo_53" vType="DEFAULT_VEHTYPE" speedFactor="1.10" vaporized=""/>
    <tripinfo id="62" depart="221.00" departLane="52o_0" departPos="5.10" departSpeed="0.00" departDelay="-0.34" arrival="286.00" arrivalLane="54i_0" arrivalPos="10.00" arrivalSpeed="19.33" duration="65.00" routeLength="596.93" waitingTime="14.00" waitingCount="1" stopTime="0.00" timeLoss="32.60" rerouteNo="0" devices="tripinfo_62" vType="DEFAULT_VEHTYPE" speedFactor="1.02" vaporized=""/>
    <tripinfo id="54" depart="192.00" departLane="52o_0" departPos="5.10" departSpeed="0.00" departDelay="-0.78" arrival="288.00" arrivalLane="53i_0" arrivalPos="10.00" arrivalSpeed="18.75" duration="96.00" routeLength="617.75" waitingTime="43.00" waitingCount="1" stopTime="0.00" timeLoss="62.42" rerouteNo="0" devices="tripinfo_54" vType="DEFAULT_VEHTYPE" speedFactor="1.00" vaporized=""/>
    <tripinfo id="70" depart="249.00" departLane="52o_0" departPos="5.10" departSpeed="0.00" departDelay="-0.90" arrival="289.00" arrivalLane="54i_0" arrivalPos="10.00" arrivalSpeed="19.11" duration="40.00" routeLength="596.93" waitingTime="0.00" waitingCount="0" stopTime="0.00" timeLoss="8.47" rerouteNo="0" devices="tripinfo_70" vType="DEFAULT_VEHTYPE" speedFactor="1.02" vaporized=""/>
    <tripinfo id="74" depart="264.00" departLane="52o_0" departPos="5.10" departSpeed="0.00" departDelay="-0.18" arrival="307.00" arrivalLane="53i_0" arrivalPos="10.00" arrivalSpeed="18.09" duration="43.00" routeLength="617.75" waitingTime="0.00" waitingCount="0" stopTime="0.00" timeLoss="7.58" rerouteNo="0" devices="tripinfo_74" vType="DEFAULT_VEHTYPE" speedFactor="0.96" vaporized=""/>
    <tripinfo id="77" depart="274.00" departLane="52o_0" departPos="5.10" departSpeed="0.00" departDelay="-0.89" arrival="313.00" arrivalLane="51i_0" arrivalPos="10.00" arrivalSpeed="18.20" duration="39.00" routeLength="615.10" waitingTime="0.00" waitingCount="0" stopTime="0.00" timeLoss="5.84" rerouteNo="0" devices="tripinfo_77" vType="DEFAULT_VEHTYPE" speedFactor="0.98" vaporized=""/>
    <tripinfo id="80" depart="285.00" departLane="52o_0" departPos="5.10" departSpeed="0.00" departDelay="-0.60" arrival="326.00" arrivalLane="54i_0" arrivalPos="10.00" arrivalSpeed="19.84" duration="41.00" routeLength="596.93" waitingTime="0.00" waitingCount="0" stopTime="0.00" timeLoss="10.04" rerouteNo="0" devices="tripinfo_80" vType="DEFAULT_VEHTYPE" speedFactor="1.03" vaporized=""/>
    <tripinfo id="87" depart="310.00" departLane="52o_0" departPos="5.10" departSpeed="0.00" departDelay="-0.59" arrival="352.00" arrivalLane="54i_0" arrivalPos="10.00" arrivalSpeed="19.44" duration="42.00" routeLength="596.93" waitingTime="0.00" waitingCount="0" stopTime="0.00" timeLoss="10.67" rerouteNo="0" devices="tripinfo_87" vType="DEFAULT_VEHTYPE" speedFactor="1.04" vaporized=""/>
    <tripinfo id="88" depart="314.00" departLane="52o_0" departPos="5.10" departSpeed="0.00" departDelay="-0.16" arrival="352.00" arrivalLane="51i_1" arrivalPos="10.00" arrivalSpeed="19.37" duration="38.00" routeLength="615.10" waitingTime="0.00" waitingCount="0" stopTime="0.00" timeLoss="5.63" rerouteNo="0" devices="tripinfo_88" vType="DEFAULT_VEHTYPE" speedFactor="1.01" vaporized=""/>
    <tripinfo id="95" depart="339.00" departLane="52o_0" departPos="5.10" departSpeed="0.00" departDelay="-0.15" arrival="379.00" arrivalLane="54i_0" arrivalPos="10.00" arrivalSpeed="20.07" duration="40.00" routeLength="596.93" waitingTime="0.00" waitingCount="0" stopTime="0.00" timeLoss="10.02" rerouteNo="0" devices="tripinfo_95" vType="DEFAULT_VEHTYPE" speedFactor="1.06" vaporized=""/>
    <tripinfo id="96" depart="342.00" departLane="52o_0" departPos="5.10" departSpeed="0.00" departDelay="-0.72" arrival="379.00" arrivalLane="51i_1" arrivalPos="10.00" arrivalSpeed="19.32" duration="37.00" routeLength="615.10" waitingTime="0.00" waitingCount="0" stopTime="0.00" timeLoss="4.80" rerouteNo="0" devices="tripinfo_96" vType="DEFAULT_VEHTYPE" speedFactor="1.01" vaporized=""/>
    <tripinfo id="17" depart="60.00" departLane="53o_0" departPos="5.10" departSpeed="0.00" departDelay="-0.69" arrival="387.00" arrivalLane="52i_0" arrivalPos="10.00" arrivalSpeed="17.52" duration="327.00" routeLength="596.93" waitingTime="281.00" waitingCount="1" stopTime="0.00" timeLoss="293.07" rerouteNo="0" devices="tripinfo_17" vType="DEFAULT_VEHTYPE" speedFactor="0.94" vaporized=""/>
    <tripinfo id="32" depart="114.00" departLane="53o_0" departPos="5.10" departSpeed="0.00" departDelay="-0.24" arrival="387.00" arrivalLane="54i_1" arrivalPos="10.00" arrivalSpeed="18.26" duration="273.00" routeLength="615.10" waitingTime="229.00" waitingCount="1" stopTime="0.00" timeLoss="241.37" rerouteNo="0" devices="tripinfo_32" vType="DEFAULT_VEHTYPE" speedFactor="1.01" vaporized=""/>
    <tripinfo id="31" depart="110.00" departLane="53o_0" departPos="5.10" departSpeed="0.00" departDelay="-0.67" arrival="388.00" arrivalLane="52i_0" arrivalPos="10.00" arrivalSpeed="20.91" duration="278.00" routeLength="596.93" waitingTime="233.00" waitingCount="1" stopTime="0.00" timeLoss="250.82" rerouteNo="0" devices="tripinfo_31" vType="DEFAULT_VEHTYPE" speedFactor="1.15" vaporized=""/>
    <tripinfo id="34" depart="121.00" departLane="53o_0" departPos="5.10" departSpeed="0.00" departDelay="-0.38" arrival="389.00" arrivalLane="54i_2" arrivalPos="10.00" arrivalSpeed="18.87" duration="268.00" routeLength="615.10" waitingTime="223.00" waitingCount="1" stopTime="0.00" timeLoss="235.72" rerouteNo="0" devices="tripinfo_34" vType="DEFAULT_VEHTYPE" speedFactor="0.99" vaporized=""/>
    <tripinfo id="35" depart="124.00" departLane="53o_0" departPos="5.10" departSpeed="0.00" departDelay="-0.95" arrival="389.00" arrivalLane="54i_1" arrivalPos="10.00" arrivalSpeed="18.49" duration="265.00" routeLength="615.10" waitingTime="218.00" waitingCount="2" stopTime="0.00" timeLoss="233.89" rerouteNo="0" devices="tripinfo_35" vType="DEFAULT_VEHTYPE" speedFactor="1.02" vaporized=""/>
    <tripinfo id="24" depart="85.00" departLane="53o_0" departPos="5.10" departSpeed="0.00" departDelay="-0.68" arrival="390.00" arrivalLane="54i_0" arrivalPos="10.00" arrivalSpeed="15.58" duration="305.00" routeLength="615.10" waitingTime="254.00" waitingCount="1" stopTime="0.00" timeLoss="265.97" rerouteNo="0" devices="tripinfo_24" vType="DEFAULT_VEHTYPE" speedFactor="0.83" vaporized=""/>
    <tripinfo id="39" depart="139.00" departLane="53o_0" departPos="5.10" departSpeed="0.00" departDelay="-0.23" arrival="393.00" arrivalLane="52i_0" arrivalPos="10.00" arrivalSpeed="16.50" duration="254.00" routeLength="596.93" waitingTime="205.00" waitingCount="1" stopTime="0.00" timeLoss="218.46" rerouteNo="0" devices="tripinfo_39" vType="DEFAULT_VEHTYPE" speedFactor="0.90" vaporized=""/>
    <tripinfo id="52" depart="185.00" departLane="53o_0" departPos="5.10" departSpeed="0.00" departDelay="-0.64" arrival="393.00" arrivalLane="51i_0" arrivalPos="10.00" arrivalSpeed="19.64" duration="208.00" routeLength="617.75" waitingTime="160.00" waitingCount="1" stopTime="0.00" timeLoss="174.91" rerouteNo="0" devices="tripinfo_52" vType="DEFAULT_VEHTYPE" speedFactor="1.02" vaporized=""/>
    <tripinfo id="51" depart="182.00" departLane="53o_0" departPos="5.10" departSpeed="0.00" departDelay="-0.07" arrival="394.00" arrivalLane="52i_0" arrivalPos="10.00" arrivalSpeed="17.99" duration="212.00" routeLength="596.93" waitingTime="166.00" waitingCount="1" stopTime="0.00" timeLoss="184.92" rerouteNo="0" devices="tripinfo_51" vType="DEFAULT_VEHTYPE" speedFactor="1.17" vaporized=""/>
    <tripinfo id="55" depart="196.00" departLane="53o_0" departPos="5.10" departSpeed="0.00" departDelay="-0.35" arrival="395.00" arrivalLane="51i_0" arrivalPos="10.00" arrivalSpeed="18.18" duration="199.00" routeLength="617.75" waitingTime="150.00" waitingCount="1" stopTime="0.00" timeLoss="165.22" rerouteNo="0" devices="tripinfo_55" vType="DEFAULT_VEHTYPE" speedFactor="1.00" vaporized=""/>
    <tripinfo id="61" depart="217.00" departLane="53o_0" departPos="5.10" departSpeed="0.00" departDelay="-0.77" arrival="396.00" arrivalLane="52i_0" arrivalPos="10.00" arrivalSpeed="20.01" duration="179.00" routeLength="596.93" waitingTime="130.00" waitingCount="1" stopTime="0.00" timeLoss="150.31" rerouteNo="0" devices="tripinfo_61" vType="DEFAULT_VEHTYPE" speedFactor="1.12" vaporized=""/>
    <tripinfo id="60" depart="214.00" departLane="53o_0" departPos="5.10" departSpeed="0.00" departDelay="-0.20" arrival="397.00" arrivalLane="51i_0" arrivalPos="10.00" arrivalSpeed="20.04" duration="183.00" routeLength="617.75" waitingTime="135.00" waitingCount="1" stopTime="0.00" timeLoss="152.49" rerouteNo="0" devices="tripinfo_60" vType="DEFAULT_VEHTYPE" speedFactor="1.08" vaporized=""/>
    <tripinfo id="69" depart="246.00" departLane="53o_0" departPos="5.10" departSpeed="0.00" departDelay="-0.33" arrival="398.00" arrivalLane="52i_0" arrivalPos="10.00" arrivalSpeed="19.25" duration="152.00" routeLength="596.93" waitingTime="104.00" waitingCount="1" stopTime="0.00" timeLoss="120.46" rerouteNo="0" devices="tripinfo_69" vType="DEFAULT_VEHTYPE" speedFactor="1.02" vaporized=""/>
    <tripinfo id="71" depart="253.00" departLane="53o_0" departPos="5.10" departSpeed="0.00" departDelay="-0.47" arrival="400.00" arrivalLane="51i_0" arrivalPos="10.00" arrivalSpeed="18.18" duration="147.00" routeLength="617.75" waitingTime="96.00" waitingCount="1" stopTime="0.00" timeLoss="113.34" rerouteNo="0" devices="tripinfo_71" vType="DEFAULT_VEHTYPE" speedFactor="0.97" vaporized=""/>
    <tripinfo id="82" depart="292.00" departLane="53o_0" departPos="5.10" departSpeed="0.00" departDelay="-0.74" arrival="401.00" arrivalLane="52i_0" arrivalPos="10.00" arrivalSpeed="19.10" duration="109.00" routeLength="596.93" waitingTime="59.00" waitingCount="1" stopTime="0.00" timeLoss="77.01" rerouteNo="0" devices="tripinfo_82" vType="DEFAULT_VEHTYPE" speedFactor="1.02" vaporized=""/>
    <tripinfo id="90" depart="321.00" departLane="53o_0" departPos="5.10" departSpeed="0.00" departDelay="-0.30" arrival="403.00" arrivalLane="51i_0" arrivalPos="10.00" arrivalSpeed="18.56" duration="82.00" routeLength="617.75" waitingTime="29.00" waitingCount="1" stopTime="0.00" timeLoss="48.92" rerouteNo="0" devices="tripinfo_90" vType="DEFAULT_VEHTYPE" speedFactor="1.02" vaporized=""/>
    <tripinfo id="98" depart="349.00" departLane="53o_0" departPos="5.10" departSpeed="0.00" departDelay="-0.86" arrival="405.00" arrivalLane="51i_0" arrivalPos="10.00" arrivalSpeed="21.17" duration="56.00" routeLength="617.75" waitingTime="4.00" waitingCount="1" stopTime="0.00" timeLoss="25.83" rerouteNo="0" devices="tripinfo_98" vType="DEFAULT_VEHTYPE" speedFactor="1.12" vaporized=""/>
    <tripinfo id="101" depart="360.00" departLane="53o_0" departPos="5.10" departSpeed="0.00" departDelay="-0.57" arrival="405.00" arrivalLane="52i_0" arrivalPos="10.00" arrivalSpeed="18.22" duration="45.00" routeLength="596.93" waitingTime="0.00" waitingCount="0" stopTime="0.00" timeLoss="10.88" rerouteNo="0" devices="tripinfo_101" vType="DEFAULT_VEHTYPE" speedFactor="0.96" vaporized=""/>