<?xml version="1.0" encoding="UTF-8"?>

<!-- generated on Thu Nov  7 23:38:02 2019 by Eclipse SUMO Version 1.2.0
<configuration xmlns:xsi="http://www.w3.org/2001/XMLSchema-instance" xsi:noNamespaceSchemaLocation="http://sumo.dlr.de/xsd/sumoConfiguration.xsd">

    <input>
        <net-file value="simulation_files/sumocfgs/../networks/isolated_3_lanes_4_stages.net.xml"/>
        <route-files value="simulation_files/sumocfgs/../routes/isolated_3_lanes_40p.rou.xml"/>
    </input>

    <output>
        <tripinfo-output value="./output/exp21_rf_20p/delay__3_tripinfo_isolated.xml"/>
    </output>

    <time>
        <begin value="0"/>
        <step-length value="1"/>
    </time>

    <report>
        <verbose value="true"/>
        <no-step-log value="true"/>
    </report>

    <gui_only>
        <tracker-interval value="1"/>
    </gui_only>

</configuration>
-->

<tripinfos xmlns:xsi="http://www.w3.org/2001/XMLSchema-instance" xsi:noNamespaceSchemaLocation="http://sumo.dlr.de/xsd/tripinfo_file.xsd">
    <tripinfo id="8" depart="15.00" departLane="52o_0" departPos="5.10" departSpeed="0.00" departDelay="0.68" arrival="55.00" arrivalLane="51i_1" arrivalPos="10.00" arrivalSpeed="17.36" duration="40.00" routeLength="615.10" waitingTime="0.00" waitingCount="0" stopTime="0.00" timeLoss="5.42" rerouteNo="0" devices="tripinfo_8" vType="DEFAULT_VEHTYPE" speedFactor="0.94" vaporized=""/>
    <tripinfo id="7" depart="12.00" departLane="52o_0" departPos="5.10" departSpeed="0.00" departDelay="-0.53" arrival="57.00" arrivalLane="54i_0" arrivalPos="10.00" arrivalSpeed="16.24" duration="45.00" routeLength="596.93" waitingTime="0.00" waitingCount="0" stopTime="0.00" timeLoss="8.52" rerouteNo="0" devices="tripinfo_7" vType="DEFAULT_VEHTYPE" speedFactor="0.89" vaporized=""/>
    <tripinfo id="13" depart="23.00" departLane="52o_0" departPos="5.10" departSpeed="0.00" departDelay="-0.27" arrival="57.00" arrivalLane="51i_0" arrivalPos="10.00" arrivalSpeed="20.74" duration="34.00" routeLength="615.10" waitingTime="0.00" waitingCount="0" stopTime="0.00" timeLoss="5.47" rerouteNo="0" devices="tripinfo_13" vType="DEFAULT_VEHTYPE" speedFactor="1.12" vaporized=""/>
    <tripinfo id="16" depart="28.00" departLane="52o_0" departPos="5.10" departSpeed="0.00" departDelay="-0.64" arrival="70.00" arrivalLane="51i_0" arrivalPos="10.00" arrivalSpeed="16.06" duration="42.00" routeLength="615.10" waitingTime="0.00" waitingCount="0" stopTime="0.00" timeLoss="5.12" rerouteNo="0" devices="tripinfo_16" vType="DEFAULT_VEHTYPE" speedFactor="0.88" vaporized=""/>
    <tripinfo id="18" depart="32.00" departLane="52o_0" departPos="5.10" departSpeed="0.00" departDelay="-0.22" arrival="71.00" arrivalLane="51i_0" arrivalPos="10.00" arrivalSpeed="17.28" duration="39.00" routeLength="615.10" waitingTime="0.00" waitingCount="0" stopTime="0.00" timeLoss="4.94" rerouteNo="0" devices="tripinfo_18" vType="DEFAULT_VEHTYPE" speedFactor="0.94" vaporized=""/>
    <tripinfo id="20" depart="35.00" departLane="52o_0" departPos="5.10" departSpeed="0.00" departDelay="-0.80" arrival="75.00" arrivalLane="54i_0" arrivalPos="10.00" arrivalSpeed="19.54" duration="40.00" routeLength="596.93" waitingTime="0.00" waitingCount="0" stopTime="0.00" timeLoss="8.71" rerouteNo="0" devices="tripinfo_20" vType="DEFAULT_VEHTYPE" speedFactor="1.02" vaporized=""/>
    <tripinfo id="26" depart="46.00" departLane="52o_0" departPos="5.10" departSpeed="0.00" departDelay="-0.54" arrival="86.00" arrivalLane="51i_0" arrivalPos="10.00" arrivalSpeed="16.79" duration="40.00" routeLength="615.10" waitingTime="0.00" waitingCount="0" stopTime="0.00" timeLoss="5.42" rerouteNo="0" devices="tripinfo_26" vType="DEFAULT_VEHTYPE" speedFactor="0.92" vaporized=""/>
    <tripinfo id="27" depart="49.00" departLane="52o_0" departPos="5.10" departSpeed="0.00" departDelay="0.67" arrival="88.00" arrivalLane="51i_0" arrivalPos="10.00" arrivalSpeed="18.08" duration="39.00" routeLength="615.10" waitingTime="0.00" waitingCount="0" stopTime="0.00" timeLoss="5.57" rerouteNo="0" devices="tripinfo_27" vType="DEFAULT_VEHTYPE" speedFactor="0.95" vaporized=""/>
    <tripinfo id="37" depart="66.00" departLane="52o_0" departPos="5.10" departSpeed="0.00" departDelay="-0.23" arrival="99.00" arrivalLane="51i_0" arrivalPos="10.00" arrivalSpeed="21.83" duration="33.00" routeLength="615.10" waitingTime="0.00" waitingCount="0" stopTime="0.00" timeLoss="5.94" rerouteNo="0" devices="tripinfo_37" vType="DEFAULT_VEHTYPE" speedFactor="1.18" vaporized=""/>
    <tripinfo id="34" depart="60.00" departLane="52o_0" departPos="5.10" departSpeed="0.00" departDelay="-0.86" arrival="100.00" arrivalLane="53i_0" arrivalPos="10.00" arrivalSpeed="19.11" duration="40.00" routeLength="617.75" waitingTime="0.00" waitingCount="0" stopTime="0.00" timeLoss="6.95" rerouteNo="0" devices="tripinfo_34" vType="DEFAULT_VEHTYPE" speedFactor="0.99" vaporized=""/>
    <tripinfo id="38" depart="69.00" departLane="52o_0" departPos="5.10" departSpeed="0.00" departDelay="0.98" arrival="107.00" arrivalLane="54i_0" arrivalPos="10.00" arrivalSpeed="20.21" duration="38.00" routeLength="596.93" waitingTime="0.00" waitingCount="0" stopTime="0.00" timeLoss="9.26" rerouteNo="0" devices="tripinfo_38" vType="DEFAULT_VEHTYPE" speedFactor="1.10" vaporized=""/>
    <tripinfo id="19" depart="34.00" departLane="53o_0" departPos="5.10" departSpeed="0.00" departDelay="-0.01" arrival="117.00" arrivalLane="54i_0" arrivalPos="10.00" arrivalSpeed="22.18" duration="83.00" routeLength="615.10" waitingTime="39.00" waitingCount="1" stopTime="0.00" timeLoss="54.78" rerouteNo="0" devices="tripinfo_19" vType="DEFAULT_VEHTYPE" speedFactor="1.16" vaporized=""/>
    <tripinfo id="31" depart="55.00" departLane="53o_0" departPos="5.10" departSpeed="0.00" departDelay="-0.49" arrival="118.00" arrivalLane="52i_0" arrivalPos="10.00" arrivalSpeed="22.20" duration="63.00" routeLength="596.93" waitingTime="20.00" waitingCount="1" stopTime="0.00" timeLoss="35.24" rerouteNo="0" devices="tripinfo_31" vType="DEFAULT_VEHTYPE" speedFactor="1.15" vaporized=""/>
    <tripinfo id="0" depart="0.00" departLane="53o_0" departPos="5.10" departSpeed="0.00" departDelay="0.00" arrival="119.00" arrivalLane="51i_0" arrivalPos="10.00" arrivalSpeed="20.38" duration="119.00" routeLength="617.75" waitingTime="75.00" waitingCount="1" stopTime="0.00" timeLoss="87.22" rerouteNo="0" devices="tripinfo_0" vType="DEFAULT_VEHTYPE" speedFactor="1.06" vaporized=""/>
    <tripinfo id="4" depart="7.00" departLane="53o_0" departPos="5.10" departSpeed="0.00" departDelay="-0.16" arrival="122.00" arrivalLane="51i_0" arrivalPos="10.00" arrivalSpeed="19.04" duration="115.00" routeLength="617.75" waitingTime="69.00" waitingCount="1" stopTime="0.00" timeLoss="82.39" rerouteNo="0" devices="tripinfo_4" vType="DEFAULT_VEHTYPE" speedFactor="1.03" vaporized=""/>
    <tripinfo id="35" depart="62.00" departLane="53o_0" departPos="5.10" departSpeed="0.00" departDelay="-0.65" arrival="122.00" arrivalLane="52i_0" arrivalPos="10.00" arrivalSpeed="19.39" duration="60.00" routeLength="596.93" waitingTime="14.00" waitingCount="1" stopTime="0.00" timeLoss="28.89" rerouteNo="0" devices="tripinfo_35" vType="DEFAULT_VEHTYPE" speedFactor="1.02" vaporized=""/>
    <tripinfo id="14" depart="25.00" departLane="53o_0" departPos="5.10" departSpeed="0.00" departDelay="-0.06" arrival="124.00" arrivalLane="51i_0" arrivalPos="10.00" arrivalSpeed="18.92" duration="99.00" routeLength="617.75" waitingTime="52.00" waitingCount="1" stopTime="0.00" timeLoss="65.16" rerouteNo="0" devices="tripinfo_14" vType="DEFAULT_VEHTYPE" speedFactor="0.99" vaporized=""/>
    <tripinfo id="41" depart="73.00" departLane="53o_0" departPos="5.10" departSpeed="0.00" departDelay="-0.39" arrival="126.00" arrivalLane="52i_0" arrivalPos="10.00" arrivalSpeed="17.38" duration="53.00" routeLength="596.93" waitingTime="5.00" waitingCount="1" stopTime="0.00" timeLoss="19.13" rerouteNo="0" devices="tripinfo_41" vType="DEFAULT_VEHTYPE" speedFactor="0.96" vaporized=""/>
    <tripinfo id="44" depart="78.00" departLane="53o_0" departPos="5.10" departSpeed="0.00" departDelay="-0.76" arrival="127.00" arrivalLane="52i_0" arrivalPos="10.00" arrivalSpeed="19.69" duration="49.00" routeLength="596.93" waitingTime="0.00" waitingCount="0" stopTime="0.00" timeLoss="18.84" rerouteNo="0" devices="tripinfo_44" vType="DEFAULT_VEHTYPE" speedFactor="1.04" vaporized=""/>
    <tripinfo id="15" depart="28.00" departLane="53o_0" departPos="5.10" departSpeed="0.00" departDelay="1.15" arrival="128.00" arrivalLane="51i_0" arrivalPos="10.00" arrivalSpeed="17.71" duration="100.00" routeLength="617.75" waitingTime="50.00" waitingCount="1" stopTime="0.00" timeLoss="64.41" rerouteNo="0" devices="tripinfo_15" vType="DEFAULT_VEHTYPE" speedFactor="0.93" vaporized=""/>
    <tripinfo id="23" depart="41.00" departLane="53o_0" departPos="5.10" departSpeed="0.00" departDelay="-0.17" arrival="131.00" arrivalLane="51i_0" arrivalPos="10.00" arrivalSpeed="16.91" duration="90.00" routeLength="617.75" waitingTime="37.00" waitingCount="1" stopTime="0.00" timeLoss="52.72" rerouteNo="0" devices="tripinfo_23" vType="DEFAULT_VEHTYPE" speedFactor="0.89" vaporized=""/>
    <tripinfo id="24" depart="44.00" departLane="53o_0" departPos="5.10" departSpeed="0.00" departDelay="1.04" arrival="135.00" arrivalLane="51i_0" arrivalPos="10.00" arrivalSpeed="15.60" duration="91.00" routeLength="617.75" waitingTime="33.00" waitingCount="1" stopTime="0.00" timeLoss="50.91" rerouteNo="0" devices="tripinfo_24" vType="DEFAULT_VEHTYPE" speedFactor="0.83" vaporized=""/>
    <tripinfo id="47" depart="84.00" departLane="53o_0" departPos="5.10" departSpeed="0.00" departDelay="-0.13" arrival="136.00" arrivalLane="51i_1" arrivalPos="10.00" arrivalSpeed="16.41" duration="52.00" routeLength="617.75" waitingTime="0.00" waitingCount="0" stopTime="0.00" timeLoss="14.88" rerouteNo="0" devices="tripinfo_47" vType="DEFAULT_VEHTYPE" speedFactor="0.90" vaporized=""/>
    <tripinfo id="56" depart="100.00" departLane="53o_0" departPos="5.10" departSpeed="0.00" departDelay="-0.24" arrival="141.00" arrivalLane="54i_0" arrivalPos="10.00" arrivalSpeed="16.70" duration="41.00" routeLength="615.10" waitingTime="0.00" waitingCount="0" stopTime="0.00" timeLoss="5.03" rerouteNo="0" devices="tripinfo_56" vType="DEFAULT_VEHTYPE" speedFactor="0.90" vaporized=""/>
    <tripinfo id="57" depart="103.00" departLane="53o_0" departPos="5.10" departSpeed="0.00" departDelay="0.97" arrival="142.00" arrivalLane="52i_0" arrivalPos="10.00" arrivalSpeed="21.47" duration="39.00" routeLength="596.93" waitingTime="0.00" waitingCount="0" stopTime="0.00" timeLoss="10.74" rerouteNo="0" devices="tripinfo_57" vType="DEFAULT_VEHTYPE" speedFactor="1.14" vaporized=""/>
    <tripinfo id="62" depart="110.00" departLane="53o_0" departPos="5.10" departSpeed="0.00" departDelay="-0.98" arrival="152.00" arrivalLane="51i_0" arrivalPos="10.00" arrivalSpeed="18.65" duration="42.00" routeLength="617.75" waitingTime="0.00" waitingCount="0" stopTime="0.00" timeLoss="9.50" rerouteNo="0" devices="tripinfo_62" vType="DEFAULT_VEHTYPE" speedFactor="1.02" vaporized=""/>
    <tripinfo id="67" depart="119.00" departLane="53o_0" departPos="5.10" departSpeed="0.00" departDelay="-0.93" arrival="159.00" arrivalLane="54i_0" arrivalPos="10.00" arrivalSpeed="17.67" duration="40.00" routeLength="615.10" waitingTime="0.00" waitingCount="0" stopTime="0.00" timeLoss="4.93" rerouteNo="0" devices="tripinfo_67" vType="DEFAULT_VEHTYPE" speedFactor="0.91" vaporized=""/>
    <tripinfo id="69" depart="123.00" departLane="53o_0" departPos="5.10" departSpeed="0.00" departDelay="-0.51" arrival="163.00" arrivalLane="52i_0" arrivalPos="10.00" arrivalSpeed="18.77" duration="40.00" routeLength="596.93" waitingTime="0.00" waitingCount="0" stopTime="0.00" timeLoss="8.89" rerouteNo="0" devices="tripinfo_69" vType="DEFAULT_VEHTYPE" speedFactor="1.02" vaporized=""/>
    <tripinfo id="2" depart="4.00" departLane="51o_0" departPos="5.10" departSpeed="0.00" departDelay="0.42" arrival="174.00" arrivalLane="53i_0" arrivalPos="10.00" arrivalSpeed="19.03" duration="170.00" routeLength="596.93" waitingTime="124.00" waitingCount="1" stopTime="0.00" timeLoss="138.31" rerouteNo="0" devices="tripinfo_2" vType="DEFAULT_VEHTYPE" speedFactor="1.01" vaporized=""/>
    <tripinfo id="12" depart="22.00" departLane="51o_0" departPos="5.10" departSpeed="0.00" departDelay="0.52" arrival="174.00" arrivalLane="52i_0" arrivalPos="10.00" arrivalSpeed="20.30" duration="152.00" routeLength="615.10" waitingTime="108.00" waitingCount="1" stopTime="0.00" timeLoss="121.20" rerouteNo="0" devices="tripinfo_12" vType="DEFAULT_VEHTYPE" speedFactor="1.05" vaporized=""/>
    <tripinfo id="28" depart="50.00" departLane="51o_0" departPos="5.10" departSpeed="0.00" departDelay="-0.12" arrival="174.00" arrivalLane="52i_1" arrivalPos="10.00" arrivalSpeed="21.65" duration="124.00" routeLength="615.10" waitingTime="78.00" waitingCount="2" stopTime="0.00" timeLoss="95.69" rerouteNo="0" devices="tripinfo_28" vType="DEFAULT_VEHTYPE" speedFactor="1.13" vaporized=""/>
    <tripinfo id="3" depart="7.00" departLane="51o_0" departPos="5.10" departSpeed="0.00" departDelay="1.63" arrival="175.00" arrivalLane="53i_0" arrivalPos="10.00" arrivalSpeed="20.92" duration="168.00" routeLength="596.93" waitingTime="123.00" waitingCount="1" stopTime="0.00" timeLoss="138.36" rerouteNo="0" devices="tripinfo_3" vType="DEFAULT_VEHTYPE" speedFactor="1.08" vaporized=""/>
    <tripinfo id="1" depart="1.00" departLane="51o_0" departPos="5.10" departSpeed="0.00" departDelay="-0.79" arrival="176.00" arrivalLane="54i_0" arrivalPos="10.00" arrivalSpeed="17.07" duration="175.00" routeLength="617.75" waitingTime="126.00" waitingCount="1" stopTime="0.00" timeLoss="139.79" rerouteNo="0" devices="tripinfo_1" vType="DEFAULT_VEHTYPE" speedFactor="0.94" vaporized=""/>
    <tripinfo id="39" depart="69.00" departLane="51o_0" departPos="5.10" departSpeed="0.00" departDelay="-0.81" arrival="179.00" arrivalLane="52i_1" arrivalPos="10.00" arrivalSpeed="17.46" duration="110.00" routeLength="615.10" waitingTime="58.00" waitingCount="1" stopTime="0.00" timeLoss="74.41" rerouteNo="0" devices="tripinfo_39" vType="DEFAULT_VEHTYPE" speedFactor="0.90" vaporized=""/>
    <tripinfo id="25" depart="44.00" departLane="51o_0" departPos="5.10" departSpeed="0.00" departDelay="-0.75" arrival="180.00" arrivalLane="54i_0" arrivalPos="10.00" arrivalSpeed="16.55" duration="136.00" routeLength="617.75" waitingTime="85.00" waitingCount="1" stopTime="0.00" timeLoss="97.89" rerouteNo="0" devices="tripinfo_25" vType="DEFAULT_VEHTYPE" speedFactor="0.87" vaporized=""/>
    <tripinfo id="29" depart="53.00" departLane="51o_0" departPos="5.10" departSpeed="0.00" departDelay="1.09" arrival="180.00" arrivalLane="52i_2" arrivalPos="10.00" arrivalSpeed="17.29" duration="127.00" routeLength="615.10" waitingTime="78.00" waitingCount="1" stopTime="0.00" timeLoss="92.53" rerouteNo="0" devices="tripinfo_29" vType="DEFAULT_VEHTYPE" speedFactor="0.93" vaporized=""/>
    <tripinfo id="65" depart="118.00" departLane="51o_0" departPos="5.10" departSpeed="0.00" departDelay="1.65" arrival="181.00" arrivalLane="52i_1" arrivalPos="10.00" arrivalSpeed="17.08" duration="63.00" routeLength="615.10" waitingTime="14.00" waitingCount="1" stopTime="0.00" timeLoss="26.64" rerouteNo="0" devices="tripinfo_65" vType="DEFAULT_VEHTYPE" speedFactor="0.88" vaporized=""/>
    <tripinfo id="5" depart="10.00" departLane="51o_0" departPos="5.10" departSpeed="0.00" departDelay="1.05" arrival="182.00" arrivalLane="53i_0" arrivalPos="10.00" arrivalSpeed="15.40" duration="172.00" routeLength="596.93" waitingTime="119.00" waitingCount="1" stopTime="0.00" timeLoss="133.25" rerouteNo="0" devices="tripinfo_5" vType="DEFAULT_VEHTYPE" speedFactor="0.83" vaporized=""/>
    <tripinfo id="11" depart="19.00" departLane="51o_0" departPos="5.10" departSpeed="0.00" departDelay="-0.69" arrival="183.00" arrivalLane="53i_0" arrivalPos="10.00" arrivalSpeed="17.83" duration="164.00" routeLength="596.93" waitingTime="115.00" waitingCount="1" stopTime="0.00" timeLoss="133.35" rerouteNo="0" devices="tripinfo_11" vType="DEFAULT_VEHTYPE" speedFactor="1.03" vaporized=""/>
    <tripinfo id="64" depart="115.00" departLane="51o_0" departPos="5.10" departSpeed="0.00" departDelay="0.44" arrival="183.00" arrivalLane="52i_1" arrivalPos="10.00" arrivalSpeed="17.62" duration="68.00" routeLength="615.10" waitingTime="14.00" waitingCount="1" stopTime="0.00" timeLoss="33.38" rerouteNo="0" devices="tripinfo_64" vType="DEFAULT_VEHTYPE" speedFactor="0.94" vaporized=""/>
    <tripinfo id="71" depart="128.00" departLane="1i_0" departPos="5.10" departSpeed="0.00" departDelay="0.91" arrival="184.00" arrivalLane="52i_1" arrivalPos="10.00" arrivalSpeed="18.54" duration="56.00" routeLength="605.00" waitingTime="9.00" waitingCount="1" stopTime="0.00" timeLoss="23.66" rerouteNo="0" devices="tripinfo_71" vType="DEFAULT_VEHTYPE" speedFactor="0.97" vaporized=""/>
    <tripinfo id="32" depart="57.00" departLane="51o_0" departPos="5.10" departSpeed="0.00" departDelay="-0.28" arrival="185.00" arrivalLane="53i_0" arrivalPos="10.00" arrivalSpeed="19.49" duration="128.00" routeLength="596.93" waitingTime="77.00" waitingCount="1" stopTime="0.00" timeLoss="95.64" rerouteNo="0" devices="tripinfo_32" vType="DEFAULT_VEHTYPE" speedFactor="1.01" vaporized=""/>
    <tripinfo id="49" depart="87.00" departLane="51o_0" departPos="5.10" departSpeed="0.00" departDelay="-0.71" arrival="186.00" arrivalLane="54i_0" arrivalPos="10.00" arrivalSpeed="15.75" duration="99.00" routeLength="617.75" waitingTime="45.00" waitingCount="1" stopTime="0.00" timeLoss="59.65" rerouteNo="0" devices="tripinfo_49" vType="DEFAULT_VEHTYPE" speedFactor="0.85" vaporized=""/>
    <tripinfo id="40" depart="72.00" departLane="51o_0" departPos="5.10" departSpeed="0.00" departDelay="0.40" arrival="187.00" arrivalLane="53i_0" arrivalPos="10.00" arrivalSpeed="18.85" duration="115.00" routeLength="596.93" waitingTime="64.00" waitingCount="1" stopTime="0.00" timeLoss="83.77" rerouteNo="0" devices="tripinfo_40" vType="DEFAULT_VEHTYPE" speedFactor="1.03" vaporized=""/>
    <tripinfo id="54" depart="96.00" departLane="51o_0" departPos="5.10" departSpeed="0.00" departDelay="-0.66" arrival="187.00" arrivalLane="54i_0" arrivalPos="10.00" arrivalSpeed="18.15" duration="91.00" routeLength="617.75" waitingTime="41.00" waitingCount="1" stopTime="0.00" timeLoss="58.04" rerouteNo="0" devices="tripinfo_54" vType="DEFAULT_VEHTYPE" speedFactor="1.00" vaporized=""/>
    <tripinfo id="60" depart="107.00" departLane="51o_0" departPos="5.10" departSpeed="0.00" departDelay="-0.40" arrival="188.00" arrivalLane="53i_0" arrivalPos="10.00" arrivalSpeed="20.60" duration="81.00" routeLength="596.93" waitingTime="30.00" waitingCount="1" stopTime="0.00" timeLoss="51.18" rerouteNo="0" devices="tripinfo_60" vType="DEFAULT_VEHTYPE" speedFactor="1.08" vaporized=""/>
    <tripinfo id="66" depart="121.00" departLane="51o_0" departPos="5.10" departSpeed="0.00" departDelay="2.86" arrival="189.00" arrivalLane="54i_0" arrivalPos="10.00" arrivalSpeed="16.35" duration="68.00" routeLength="617.75" waitingTime="13.00" waitingCount="1" stopTime="0.00" timeLoss="31.93" rerouteNo="0" devices="tripinfo_66" vType="DEFAULT_VEHTYPE" speedFactor="0.91" vaporized=""/>
    <tripinfo id="63" depart="112.00" departLane="51o_0" departPos="5.10" departSpeed="0.00" departDelay="-0.77" arrival="191.00" arrivalLane="53i_0" arrivalPos="10.00" arrivalSpeed="18.44" duration="79.00" routeLength="596.93" waitingTime="27.00" waitingCount="1" stopTime="0.00" timeLoss="46.99" rerouteNo="0" devices="tripinfo_63" vType="DEFAULT_VEHTYPE" speedFactor="0.99" vaporized=""/>
    <tripinfo id="70" depart="125.00" departLane="51o_0" departPos="5.10" departSpeed="0.00" departDelay="-0.30" arrival="191.00" arrivalLane="54i_0" arrivalPos="10.00" arrivalSpeed="19.61" duration="66.00" routeLength="617.75" waitingTime="11.00" waitingCount="1" stopTime="0.00" timeLoss="33.43" rerouteNo="0" devices="tripinfo_70" vType="DEFAULT_VEHTYPE" speedFactor="1.02" vaporized=""/>
    <tripinfo id="77" depart="137.00" departLane="51o_0" departPos="5.10" departSpeed="0.00" departDelay="-0.83" arrival="195.00" arrivalLane="53i_0" arrivalPos="10.00" arrivalSpeed="18.13" duration="58.00" routeLength="596.93" waitingTime="3.00" waitingCount="1" stopTime="0.00" timeLoss="24.54" rerouteNo="0" devices="tripinfo_77" vType="DEFAULT_VEHTYPE" speedFactor="0.98" vaporized=""/>
    <tripinfo id="86" depart="153.00" departLane="51o_0" departPos="5.10" departSpeed="0.00" departDelay="-0.94" arrival="195.00" arrivalLane="54i_0" arrivalPos="10.00" arrivalSpeed="18.65" duration="42.00" routeLength="617.75" waitingTime="0.00" waitingCount="0" stopTime="0.00" timeLoss="8.55" rerouteNo="0" devices="tripinfo_86" vType="DEFAULT_VEHTYPE" speedFactor="1.00" vaporized=""/>
    <tripinfo id="89" depart="159.00" departLane="51o_0" departPos="5.10" departSpeed="0.00" departDelay="-0.31" arrival="200.00" arrivalLane="54i_0" arrivalPos="10.00" arrivalSpeed="18.62" duration="41.00" routeLength="617.75" waitingTime="0.00" waitingCount="0" stopTime="0.00" timeLoss="8.87" rerouteNo="0" devices="tripinfo_89" vType="DEFAULT_VEHTYPE" speedFactor="1.02" vaporized=""/>
    <tripinfo id="96" depart="171.00" departLane="51o_0" departPos="5.10" departSpeed="0.00" departDelay="-0.84" arrival="212.00" arrivalLane="53i_0" arrivalPos="10.00" arrivalSpeed="19.21" duration="41.00" routeLength="596.93" waitingTime="0.00" waitingCount="0" stopTime="0.00" timeLoss="9.44" rerouteNo="0" devices="tripinfo_96" vType="DEFAULT_VEHTYPE" speedFactor="1.01" vaporized=""/>
    <tripinfo id="97" depart="174.00" departLane="51o_0" departPos="5.10" departSpeed="0.00" departDelay="0.37" arrival="218.00" arrivalLane="54i_0" arrivalPos="10.00" arrivalSpeed="17.44" duration="44.00" routeLength="617.75" waitingTime="0.00" waitingCount="0" stopTime="0.00" timeLoss="7.77" rerouteNo="0" devices="tripinfo_97" vType="DEFAULT_VEHTYPE" speedFactor="0.91" vaporized=""/>
    <tripinfo id="99" depart="177.00" departLane="51o_0" departPos="5.10" departSpeed="0.00" departDelay="-0.21" arrival="220.00" arrivalLane="54i_0" arrivalPos="10.00" arrivalSpeed="20.86" duration="43.00" routeLength="617.75" waitingTime="0.00" waitingCount="0" stopTime="0.00" timeLoss="12.34" rerouteNo="0" devices="tripinfo_99" vType="DEFAULT_VEHTYPE" speedFactor="1.10" vaporized=""/>
    <tripinfo id="111" depart="198.00" departLane="51o_0" departPos="5.10" departSpeed="0.00" departDelay="-0.69" arrival="243.00" arrivalLane="53i_0" arrivalPos="10.00" arrivalSpeed="16.81" duration="45.00" routeLength="596.93" waitingTime="0.00" waitingCount="0" stopTime="0.00" timeLoss="7.98" rerouteNo="0" devices="tripinfo_111" vType="DEFAULT_VEHTYPE" speedFactor="0.87" vaporized=""/>
    <tripinfo id="125" depart="224.00" departLane="51o_0" departPos="5.10" departSpeed="0.00" departDelay="0.25" arrival="257.00" arrivalLane="52i_0" arrivalPos="10.00" arrivalSpeed="21.89" duration="33.00" routeLength="615.10" waitingTime="0.00" waitingCount="0" stopTime="0.00" timeLoss="5.06" rerouteNo="0" devices="tripinfo_125" vType="DEFAULT_VEHTYPE" speedFactor="1.15" vaporized=""/>
    <tripinfo id="122" depart="218.00" departLane="51o_0" departPos="5.10" departSpeed="0.00" departDelay="-0.38" arrival="259.00" arrivalLane="54i_0" arrivalPos="10.00" arrivalSpeed="19.44" duration="41.00" routeLength="617.75" waitingTime="0.00" waitingCount="0" stopTime="0.00" timeLoss="8.97" rerouteNo="0" devices="tripinfo_122" vType="DEFAULT_VEHTYPE" speedFactor="1.03" vaporized=""/>
    <tripinfo id="123" depart="221.00" departLane="51o_0" departPos="5.10" departSpeed="0.00" departDelay="0.83" arrival="262.00" arrivalLane="54i_0" arrivalPos="10.00" arrivalSpeed="19.69" duration="41.00" routeLength="617.75" waitingTime="0.00" waitingCount="0" stopTime="0.00" timeLoss="8.43" rerouteNo="0" devices="tripinfo_123" vType="DEFAULT_VEHTYPE" speedFactor="1.02" vaporized=""/>
    <tripinfo id="129" depart="230.00" departLane="51o_0" departPos="5.10" departSpeed="0.00" departDelay="-0.91" arrival="267.00" arrivalLane="52i_0" arrivalPos="10.00" arrivalSpeed="19.42" duration="37.00" routeLength="615.10" waitingTime="0.00" waitingCount="0" stopTime="0.00" timeLoss="5.17" rerouteNo="0" devices="tripinfo_129" vType="DEFAULT_VEHTYPE" speedFactor="1.01" vaporized=""/>
    <tripinfo id="132" depart="236.00" departLane="51o_0" departPos="5.10" departSpeed="0.00" departDelay="-0.28" arrival="278.00" arrivalLane="53i_0" arrivalPos="10.00" arrivalSpeed="18.23" duration="42.00" routeLength="596.93" waitingTime="0.00" waitingCount="0" stopTime="0.00" timeLoss="8.73" rerouteNo="0" devices="tripinfo_132" vType="DEFAULT_VEHTYPE" speedFactor="0.96" vaporized=""/>
    <tripinfo id="6" depart="10.00" departLane="4i_0" departPos="5.10" departSpeed="0.00" departDelay="-0.74" arrival="283.00" arrivalLane="51i_0" arrivalPos="10.00" arrivalSpeed="19.23" duration="273.00" routeLength="586.83" waitingTime="229.00" waitingCount="1" stopTime="0.00" timeLoss="242.83" rerouteNo="0" devices="tripinfo_6" vType="DEFAULT_VEHTYPE" speedFactor="1.05" vaporized=""/>
    <tripinfo id="21" depart="37.00" departLane="54o_0" departPos="5.10" departSpeed="0.00" departDelay="-0.59" arrival="284.00" arrivalLane="53i_1" arrivalPos="10.00" arrivalSpeed="19.18" duration="247.00" routeLength="615.10" waitingTime="202.00" waitingCount="1" stopTime="0.00" timeLoss="214.90" rerouteNo="0" devices="tripinfo_21" vType="DEFAULT_VEHTYPE" speedFactor="1.01" vaporized=""/>
    <tripinfo id="30" depart="53.00" departLane="54o_0" departPos="5.10" departSpeed="0.00" departDelay="-0.70" arrival="284.00" arrivalLane="51i_0" arrivalPos="10.00" arrivalSpeed="21.89" duration="231.00" routeLength="596.93" waitingTime="188.00" waitingCount="1" stopTime="0.00" timeLoss="203.64" rerouteNo="0" devices="tripinfo_30" vType="DEFAULT_VEHTYPE" speedFactor="1.18" vaporized=""/>
    <tripinfo id="9" depart="16.00" departLane="54o_0" departPos="5.10" departSpeed="0.00" departDelay="-0.11" arrival="286.00" arrivalLane="2o_0" arrivalPos="286.40" arrivalSpeed="16.04" duration="270.00" routeLength="607.65" waitingTime="221.00" waitingCount="1" stopTime="0.00" timeLoss="232.29" rerouteNo="0" devices="tripinfo_9" vType="DEFAULT_VEHTYPE" speedFactor="0.86" vaporized=""/>
    <tripinfo id="36" depart="64.00" departLane="54o_0" departPos="5.10" departSpeed="0.00" departDelay="-0.44" arrival="286.00" arrivalLane="53i_1" arrivalPos="10.00" arrivalSpeed="17.73" duration="222.00" routeLength="615.10" waitingTime="173.00" waitingCount="1" stopTime="0.00" timeLoss="189.39" rerouteNo="0" devices="tripinfo_36" vType="DEFAULT_VEHTYPE" speedFactor="0.97" vaporized=""/>
    <tripinfo id="42" depart="75.00" departLane="54o_0" departPos="5.10" departSpeed="0.00" departDelay="-0.18" arrival="287.00" arrivalLane="51i_0" arrivalPos="10.00" arrivalSpeed="21.09" duration="212.00" routeLength="596.93" waitingTime="167.00" waitingCount="1" stopTime="0.00" timeLoss="182.72" rerouteNo="0" devices="tripinfo_42" vType="DEFAULT_VEHTYPE" speedFactor="1.09" vaporized=""/>
    <tripinfo id="10" depart="19.00" departLane="54o_0" departPos="5.10" departSpeed="0.00" departDelay="1.10" arrival="288.00" arrivalLane="52i_0" arrivalPos="10.00" arrivalSpeed="20.99" duration="269.00" routeLength="617.75" waitingTime="220.00" waitingCount="1" stopTime="0.00" timeLoss="238.64" rerouteNo="0" devices="tripinfo_10" vType="DEFAULT_VEHTYPE" speedFactor="1.09" vaporized=""/>
    <tripinfo id="59" depart="106.00" departLane="54o_0" departPos="5.10" departSpeed="0.00" departDelay="0.39" arrival="288.00" arrivalLane="53i_1" arrivalPos="10.00" arrivalSpeed="17.64" duration="182.00" routeLength="615.10" waitingTime="130.00" waitingCount="1" stopTime="0.00" timeLoss="149.07" rerouteNo="0" devices="tripinfo_59" vType="DEFAULT_VEHTYPE" speedFactor="0.97" vaporized=""/>
    <tripinfo id="45" depart="80.00" departLane="54o_0" departPos="5.10" departSpeed="0.00" departDelay="-0.55" arrival="289.00" arrivalLane="51i_0" arrivalPos="10.00" arrivalSpeed="20.48" duration="209.00" routeLength="596.93" waitingTime="163.00" waitingCount="1" stopTime="0.00" timeLoss="179.85" rerouteNo="0" devices="tripinfo_45" vType="DEFAULT_VEHTYPE" speedFactor="1.09" vaporized=""/>
    <tripinfo id="17" depart="30.00" departLane="54o_0" departPos="5.10" departSpeed="0.00" departDelay="-0.43" arrival="290.00" arrivalLane="52i_0" arrivalPos="10.00" arrivalSpeed="18.27" duration="260.00" routeLength="617.75" waitingTime="212.00" waitingCount="1" stopTime="0.00" timeLoss="224.82" rerouteNo="0" devices="tripinfo_17" vType="DEFAULT_VEHTYPE" speedFactor="0.94" vaporized=""/>
    <tripinfo id="61" depart="109.00" departLane="54o_0" departPos="5.10" departSpeed="0.00" departDelay="-0.19" arrival="290.00" arrivalLane="53i_1" arrivalPos="10.00" arrivalSpeed="20.57" duration="181.00" routeLength="615.10" waitingTime="129.00" waitingCount="2" stopTime="0.00" timeLoss="151.98" rerouteNo="0" devices="tripinfo_61" vType="DEFAULT_VEHTYPE" speedFactor="1.12" vaporized=""/>
    <tripinfo id="88" depart="157.00" departLane="54o_0" departPos="5.10" departSpeed="0.00" departDelay="-0.52" arrival="291.00" arrivalLane="53i_1" arrivalPos="10.00" arrivalSpeed="18.48" duration="134.00" routeLength="615.10" waitingTime="88.00" waitingCount="1" stopTime="0.00" timeLoss="102.48" rerouteNo="0" devices="tripinfo_88" vType="DEFAULT_VEHTYPE" speedFactor="1.01" vaporized=""/>
    <tripinfo id="22" depart="40.00" departLane="54o_0" departPos="5.10" departSpeed="0.00" departDelay="0.62" arrival="292.00" arrivalLane="52i_0" arrivalPos="10.00" arrivalSpeed="18.43" duration="252.00" routeLength="617.75" waitingTime="202.00" waitingCount="1" stopTime="0.00" timeLoss="218.48" rerouteNo="0" devices="tripinfo_22" vType="DEFAULT_VEHTYPE" speedFactor="0.98" vaporized=""/>