<?xml version="1.0" encoding="UTF-8"?>

<!-- generated on Fri Nov  8 01:32:19 2019 by Eclipse SUMO Version 1.2.0
<configuration xmlns:xsi="http://www.w3.org/2001/XMLSchema-instance" xsi:noNamespaceSchemaLocation="http://sumo.dlr.de/xsd/sumoConfiguration.xsd">

    <input>
        <net-file value="simulation_files/sumocfgs/../networks/isolated_3_lanes_4_stages.net.xml"/>
        <route-files value="simulation_files/sumocfgs/../routes/isolated_3_lanes_20p.rou.xml"/>
    </input>

    <output>
        <tripinfo-output value="./output/exp21_rf_20p/delay_prq__8_tripinfo_isolated.xml"/>
    </output>

    <time>
        <begin value="0"/>
        <step-length value="1"/>
    </time>

    <report>
        <verbose value="true"/>
        <no-step-log value="true"/>
    </report>

    <gui_only>
        <tracker-interval value="1"/>
    </gui_only>

</configuration>
-->

<tripinfos xmlns:xsi="http://www.w3.org/2001/XMLSchema-instance" xsi:noNamespaceSchemaLocation="http://sumo.dlr.de/xsd/tripinfo_file.xsd">
    <tripinfo id="2" depart="7.00" departLane="52o_0" departPos="5.10" departSpeed="0.00" departDelay="-0.14" arrival="48.00" arrivalLane="54i_0" arrivalPos="10.00" arrivalSpeed="19.14" duration="41.00" routeLength="596.93" waitingTime="0.00" waitingCount="0" stopTime="0.00" timeLoss="9.18" rerouteNo="0" devices="tripinfo_2" vType="DEFAULT_VEHTYPE" speedFactor="1.01" vaporized=""/>
    <tripinfo id="6" depart="21.00" departLane="52o_0" departPos="5.10" departSpeed="0.00" departDelay="-0.42" arrival="57.00" arrivalLane="51i_0" arrivalPos="10.00" arrivalSpeed="20.21" duration="36.00" routeLength="615.10" waitingTime="0.00" waitingCount="0" stopTime="0.00" timeLoss="5.29" rerouteNo="0" devices="tripinfo_6" vType="DEFAULT_VEHTYPE" speedFactor="1.05" vaporized=""/>
    <tripinfo id="5" depart="17.00" departLane="52o_0" departPos="5.10" departSpeed="0.00" departDelay="-0.85" arrival="64.00" arrivalLane="53i_0" arrivalPos="10.00" arrivalSpeed="15.55" duration="47.00" routeLength="617.75" waitingTime="0.00" waitingCount="0" stopTime="0.00" timeLoss="6.73" rerouteNo="0" devices="tripinfo_5" vType="DEFAULT_VEHTYPE" speedFactor="0.83" vaporized=""/>
    <tripinfo id="0" depart="0.00" departLane="53o_0" departPos="5.10" departSpeed="0.00" departDelay="0.00" arrival="69.00" arrivalLane="52i_0" arrivalPos="10.00" arrivalSpeed="19.38" duration="69.00" routeLength="596.93" waitingTime="26.00" waitingCount="1" stopTime="0.00" timeLoss="38.88" rerouteNo="0" devices="tripinfo_0" vType="DEFAULT_VEHTYPE" speedFactor="1.06" vaporized=""/>
    <tripinfo id="12" depart="42.00" departLane="53o_0" departPos="5.10" departSpeed="0.00" departDelay="-0.84" arrival="78.00" arrivalLane="54i_0" arrivalPos="10.00" arrivalSpeed="19.76" duration="36.00" routeLength="615.10" waitingTime="0.00" waitingCount="0" stopTime="0.00" timeLoss="5.45" rerouteNo="0" devices="tripinfo_12" vType="DEFAULT_VEHTYPE" speedFactor="1.05" vaporized=""/>
    <tripinfo id="15" depart="53.00" departLane="53o_0" departPos="5.10" departSpeed="0.00" departDelay="-0.55" arrival="93.00" arrivalLane="54i_0" arrivalPos="10.00" arrivalSpeed="17.03" duration="40.00" routeLength="615.10" waitingTime="0.00" waitingCount="0" stopTime="0.00" timeLoss="5.33" rerouteNo="0" devices="tripinfo_15" vType="DEFAULT_VEHTYPE" speedFactor="0.93" vaporized=""/>
    <tripinfo id="17" depart="60.00" departLane="53o_0" departPos="5.10" departSpeed="0.00" departDelay="-0.69" arrival="103.00" arrivalLane="52i_0" arrivalPos="10.00" arrivalSpeed="17.82" duration="43.00" routeLength="596.93" waitingTime="0.00" waitingCount="0" stopTime="0.00" timeLoss="8.85" rerouteNo="0" devices="tripinfo_17" vType="DEFAULT_VEHTYPE" speedFactor="0.94" vaporized=""/>
    <tripinfo id="24" depart="85.00" departLane="53o_0" departPos="5.10" departSpeed="0.00" departDelay="-0.68" arrival="129.00" arrivalLane="54i_0" arrivalPos="10.00" arrivalSpeed="15.76" duration="44.00" routeLength="615.10" waitingTime="0.00" waitingCount="0" stopTime="0.00" timeLoss="5.52" rerouteNo="0" devices="tripinfo_24" vType="DEFAULT_VEHTYPE" speedFactor="0.83" vaporized=""/>
    <tripinfo id="31" depart="110.00" departLane="53o_0" departPos="5.10" departSpeed="0.00" departDelay="-0.67" arrival="148.00" arrivalLane="52i_0" arrivalPos="10.00" arrivalSpeed="21.67" duration="38.00" routeLength="596.93" waitingTime="0.00" waitingCount="0" stopTime="0.00" timeLoss="10.30" rerouteNo="0" devices="tripinfo_31" vType="DEFAULT_VEHTYPE" speedFactor="1.15" vaporized=""/>
    <tripinfo id="32" depart="114.00" departLane="53o_0" departPos="5.10" departSpeed="0.00" departDelay="-0.24" arrival="152.00" arrivalLane="54i_0" arrivalPos="10.00" arrivalSpeed="19.29" duration="38.00" routeLength="615.10" waitingTime="0.00" waitingCount="0" stopTime="0.00" timeLoss="5.99" rerouteNo="0" devices="tripinfo_32" vType="DEFAULT_VEHTYPE" speedFactor="1.01" vaporized=""/>
    <tripinfo id="1" depart="3.00" departLane="51o_0" departPos="5.10" departSpeed="0.00" departDelay="-0.57" arrival="166.00" arrivalLane="53i_0" arrivalPos="10.00" arrivalSpeed="17.49" duration="163.00" routeLength="596.93" waitingTime="115.00" waitingCount="1" stopTime="0.00" timeLoss="128.83" rerouteNo="0" devices="tripinfo_1" vType="DEFAULT_VEHTYPE" speedFactor="0.94" vaporized=""/>
    <tripinfo id="13" depart="46.00" departLane="51o_0" departPos="5.10" departSpeed="0.00" departDelay="-0.41" arrival="167.00" arrivalLane="53i_0" arrivalPos="10.00" arrivalSpeed="20.22" duration="121.00" routeLength="596.93" waitingTime="76.00" waitingCount="1" stopTime="0.00" timeLoss="92.74" rerouteNo="0" devices="tripinfo_13" vType="DEFAULT_VEHTYPE" speedFactor="1.12" vaporized=""/>
    <tripinfo id="9" depart="32.00" departLane="51o_0" departPos="5.10" departSpeed="0.00" departDelay="-0.13" arrival="168.00" arrivalLane="54i_0" arrivalPos="10.00" arrivalSpeed="15.58" duration="136.00" routeLength="617.75" waitingTime="85.00" waitingCount="1" stopTime="0.00" timeLoss="97.66" rerouteNo="0" devices="tripinfo_9" vType="DEFAULT_VEHTYPE" speedFactor="0.86" vaporized=""/>
    <tripinfo id="21" depart="74.00" departLane="51o_0" departPos="5.10" departSpeed="0.00" departDelay="-0.97" arrival="170.00" arrivalLane="53i_0" arrivalPos="10.00" arrivalSpeed="19.59" duration="96.00" routeLength="596.93" waitingTime="50.00" waitingCount="1" stopTime="0.00" timeLoss="63.79" rerouteNo="0" devices="tripinfo_21" vType="DEFAULT_VEHTYPE" speedFactor="1.01" vaporized=""/>
    <tripinfo id="25" depart="89.00" departLane="51o_0" departPos="5.10" departSpeed="0.00" departDelay="-0.25" arrival="171.00" arrivalLane="54i_0" arrivalPos="10.00" arrivalSpeed="16.63" duration="82.00" routeLength="617.75" waitingTime="31.00" waitingCount="1" stopTime="0.00" timeLoss="44.02" rerouteNo="0" devices="tripinfo_25" vType="DEFAULT_VEHTYPE" speedFactor="0.87" vaporized=""/>
    <tripinfo id="23" depart="82.00" departLane="51o_0" departPos="5.10" departSpeed="0.00" departDelay="-0.11" arrival="175.00" arrivalLane="53i_0" arrivalPos="10.00" arrivalSpeed="16.11" duration="93.00" routeLength="596.93" waitingTime="40.00" waitingCount="1" stopTime="0.00" timeLoss="56.79" rerouteNo="0" devices="tripinfo_23" vType="DEFAULT_VEHTYPE" speedFactor="0.89" vaporized=""/>
    <tripinfo id="26" depart="92.00" departLane="51o_0" departPos="5.10" departSpeed="0.00" departDelay="-0.82" arrival="177.00" arrivalLane="53i_0" arrivalPos="10.00" arrivalSpeed="16.88" duration="85.00" routeLength="596.93" waitingTime="31.00" waitingCount="1" stopTime="0.00" timeLoss="49.58" rerouteNo="0" devices="tripinfo_26" vType="DEFAULT_VEHTYPE" speedFactor="0.92" vaporized=""/>
    <tripinfo id="41" depart="146.00" departLane="51o_0" departPos="5.10" departSpeed="0.00" departDelay="-0.37" arrival="188.00" arrivalLane="53i_0" arrivalPos="10.00" arrivalSpeed="18.18" duration="42.00" routeLength="596.93" waitingTime="0.00" waitingCount="0" stopTime="0.00" timeLoss="8.42" rerouteNo="0" devices="tripinfo_41" vType="DEFAULT_VEHTYPE" speedFactor="0.96" vaporized=""/>
    <tripinfo id="45" depart="160.00" departLane="51o_0" departPos="5.10" departSpeed="0.00" departDelay="-0.65" arrival="196.00" arrivalLane="52i_0" arrivalPos="10.00" arrivalSpeed="20.05" duration="36.00" routeLength="615.10" waitingTime="0.00" waitingCount="0" stopTime="0.00" timeLoss="6.44" rerouteNo="0" devices="tripinfo_45" vType="DEFAULT_VEHTYPE" speedFactor="1.09" vaporized=""/>
    <tripinfo id="3" depart="10.00" departLane="54o_0" departPos="5.10" departSpeed="0.00" departDelay="-0.71" arrival="220.00" arrivalLane="53i_0" arrivalPos="10.00" arrivalSpeed="20.94" duration="210.00" routeLength="615.10" waitingTime="166.00" waitingCount="1" stopTime="0.00" timeLoss="180.27" rerouteNo="0" devices="tripinfo_3" vType="DEFAULT_VEHTYPE" speedFactor="1.08" vaporized=""/>
    <tripinfo id="4" depart="14.00" departLane="54o_0" departPos="5.10" departSpeed="0.00" departDelay="-0.28" arrival="221.00" arrivalLane="52i_0" arrivalPos="10.00" arrivalSpeed="19.52" duration="207.00" routeLength="617.75" waitingTime="162.00" waitingCount="1" stopTime="0.00" timeLoss="174.84" rerouteNo="0" devices="tripinfo_4" vType="DEFAULT_VEHTYPE" speedFactor="1.03" vaporized=""/>
    <tripinfo id="20" depart="71.00" departLane="54o_0" departPos="5.10" departSpeed="0.00" departDelay="-0.40" arrival="221.00" arrivalLane="53i_1" arrivalPos="10.00" arrivalSpeed="19.34" duration="150.00" routeLength="615.10" waitingTime="105.00" waitingCount="1" stopTime="0.00" timeLoss="118.23" rerouteNo="0" devices="tripinfo_20" vType="DEFAULT_VEHTYPE" speedFactor="1.02" vaporized=""/>
    <tripinfo id="28" depart="99.00" departLane="54o_0" departPos="5.10" departSpeed="0.00" departDelay="-0.96" arrival="222.00" arrivalLane="51i_0" arrivalPos="10.00" arrivalSpeed="21.11" duration="123.00" routeLength="596.93" waitingTime="79.00" waitingCount="1" stopTime="0.00" timeLoss="94.50" rerouteNo="0" devices="tripinfo_28" vType="DEFAULT_VEHTYPE" speedFactor="1.13" vaporized=""/>
    <tripinfo id="10" depart="35.00" departLane="54o_0" departPos="5.10" departSpeed="0.00" departDelay="-0.70" arrival="224.00" arrivalLane="52i_0" arrivalPos="10.00" arrivalSpeed="20.66" duration="189.00" routeLength="617.75" waitingTime="144.00" waitingCount="1" stopTime="0.00" timeLoss="158.29" rerouteNo="0" devices="tripinfo_10" vType="DEFAULT_VEHTYPE" speedFactor="1.09" vaporized=""/>
    <tripinfo id="29" depart="103.00" departLane="54o_0" departPos="5.10" departSpeed="0.00" departDelay="-0.53" arrival="224.00" arrivalLane="53i_1" arrivalPos="10.00" arrivalSpeed="17.00" duration="121.00" routeLength="615.10" waitingTime="71.00" waitingCount="1" stopTime="0.00" timeLoss="86.71" rerouteNo="0" devices="tripinfo_29" vType="DEFAULT_VEHTYPE" speedFactor="0.93" vaporized=""/>
    <tripinfo id="33" depart="117.00" departLane="54o_0" departPos="5.10" departSpeed="0.00" departDelay="-0.81" arrival="224.00" arrivalLane="51i_0" arrivalPos="10.00" arrivalSpeed="22.65" duration="107.00" routeLength="596.93" waitingTime="64.00" waitingCount="1" stopTime="0.00" timeLoss="78.92" rerouteNo="0" devices="tripinfo_33" vType="DEFAULT_VEHTYPE" speedFactor="1.17" vaporized=""/>
    <tripinfo id="44" depart="157.00" departLane="54o_0" departPos="5.10" departSpeed="0.00" departDelay="-0.08" arrival="225.00" arrivalLane="53i_2" arrivalPos="10.00" arrivalSpeed="19.96" duration="68.00" routeLength="615.10" waitingTime="22.00" waitingCount="1" stopTime="0.00" timeLoss="37.62" rerouteNo="0" devices="tripinfo_44" vType="DEFAULT_VEHTYPE" speedFactor="1.04" vaporized=""/>
    <tripinfo id="42" depart="149.00" departLane="54o_0" departPos="5.10" departSpeed="0.00" departDelay="-0.94" arrival="227.00" arrivalLane="51i_0" arrivalPos="10.00" arrivalSpeed="20.44" duration="78.00" routeLength="596.93" waitingTime="32.00" waitingCount="1" stopTime="0.00" timeLoss="48.84" rerouteNo="0" devices="tripinfo_42" vType="DEFAULT_VEHTYPE" speedFactor="1.09" vaporized=""/>
    <tripinfo id="47" depart="167.00" departLane="54o_0" departPos="5.10" departSpeed="0.00" departDelay="-0.79" arrival="231.00" arrivalLane="52i_0" arrivalPos="10.00" arrivalSpeed="16.73" duration="64.00" routeLength="617.75" waitingTime="11.00" waitingCount="1" stopTime="0.00" timeLoss="26.80" rerouteNo="0" devices="tripinfo_47" vType="DEFAULT_VEHTYPE" speedFactor="0.90" vaporized=""/>
    <tripinfo id="50" depart="178.00" departLane="54o_0" departPos="5.10" departSpeed="0.00" departDelay="-0.50" arrival="235.00" arrivalLane="52i_0" arrivalPos="10.00" arrivalSpeed="15.61" duration="57.00" routeLength="617.75" waitingTime="3.00" waitingCount="1" stopTime="0.00" timeLoss="18.03" rerouteNo="0" devices="tripinfo_50" vType="DEFAULT_VEHTYPE" speedFactor="0.85" vaporized=""/>
    <tripinfo id="56" depart="199.00" departLane="54o_0" departPos="5.10" departSpeed="0.00" departDelay="-0.92" arrival="240.00" arrivalLane="53i_0" arrivalPos="10.00" arrivalSpeed="16.19" duration="41.00" routeLength="615.10" waitingTime="0.00" waitingCount="0" stopTime="0.00" timeLoss="5.45" rerouteNo="0" devices="tripinfo_56" vType="DEFAULT_VEHTYPE" speedFactor="0.90" vaporized=""/>
    <tripinfo id="58" depart="207.00" departLane="54o_0" departPos="5.10" departSpeed="0.00" departDelay="-0.06" arrival="244.00" arrivalLane="53i_0" arrivalPos="10.00" arrivalSpeed="19.47" duration="37.00" routeLength="615.10" waitingTime="0.00" waitingCount="0" stopTime="0.00" timeLoss="5.33" rerouteNo="0" devices="tripinfo_58" vType="DEFAULT_VEHTYPE" speedFactor="1.02" vaporized=""/>
    <tripinfo id="8" depart="28.00" departLane="52o_0" departPos="5.10" departSpeed="0.00" departDelay="-0.56" arrival="262.00" arrivalLane="51i_1" arrivalPos="10.00" arrivalSpeed="18.15" duration="234.00" routeLength="615.10" waitingTime="189.00" waitingCount="1" stopTime="0.00" timeLoss="200.01" rerouteNo="0" devices="tripinfo_8" vType="DEFAULT_VEHTYPE" speedFactor="0.94" vaporized=""/>
    <tripinfo id="11" depart="39.00" departLane="52o_0" departPos="5.10" departSpeed="0.00" departDelay="-0.27" arrival="262.00" arrivalLane="53i_0" arrivalPos="10.00" arrivalSpeed="19.29" duration="223.00" routeLength="617.75" waitingTime="179.00" waitingCount="1" stopTime="0.00" timeLoss="190.52" rerouteNo="0" devices="tripinfo_11" vType="DEFAULT_VEHTYPE" speedFactor="1.03" vaporized=""/>
    <tripinfo id="30" depart="107.00" departLane="52o_0" departPos="5.10" departSpeed="0.00" departDelay="-0.10" arrival="262.00" arrivalLane="54i_0" arrivalPos="10.00" arrivalSpeed="22.14" duration="155.00" routeLength="596.93" waitingTime="111.00" waitingCount="1" stopTime="0.00" timeLoss="127.13" rerouteNo="0" devices="tripinfo_30" vType="DEFAULT_VEHTYPE" speedFactor="1.18" vaporized=""/>
    <tripinfo id="7" depart="24.00" departLane="52o_0" departPos="5.10" departSpeed="0.00" departDelay="-0.99" arrival="264.00" arrivalLane="51i_0" arrivalPos="10.00" arrivalSpeed="16.16" duration="240.00" routeLength="615.10" waitingTime="192.00" waitingCount="1" stopTime="0.00" timeLoss="203.95" rerouteNo="0" devices="tripinfo_7" vType="DEFAULT_VEHTYPE" speedFactor="0.89" vaporized=""/>
    <tripinfo id="19" depart="67.00" departLane="52o_0" departPos="5.10" departSpeed="0.00" departDelay="-0.83" arrival="264.00" arrivalLane="51i_1" arrivalPos="10.00" arrivalSpeed="21.46" duration="197.00" routeLength="615.10" waitingTime="149.00" waitingCount="1" stopTime="0.00" timeLoss="168.94" rerouteNo="0" devices="tripinfo_19" vType="DEFAULT_VEHTYPE" speedFactor="1.16" vaporized=""/>
    <tripinfo id="14" depart="49.00" departLane="52o_0" departPos="5.10" departSpeed="0.00" departDelay="-0.98" arrival="265.00" arrivalLane="53i_0" arrivalPos="10.00" arrivalSpeed="18.92" duration="216.00" routeLength="617.75" waitingTime="170.00" waitingCount="1" stopTime="0.00" timeLoss="181.89" rerouteNo="0" devices="tripinfo_14" vType="DEFAULT_VEHTYPE" speedFactor="0.99" vaporized=""/>
    <tripinfo id="46" depart="164.00" departLane="52o_0" departPos="5.10" departSpeed="0.00" departDelay="-0.22" arrival="265.00" arrivalLane="51i_1" arrivalPos="10.00" arrivalSpeed="18.50" duration="101.00" routeLength="615.10" waitingTime="54.00" waitingCount="1" stopTime="0.00" timeLoss="69.18" rerouteNo="0" devices="tripinfo_46" vType="DEFAULT_VEHTYPE" speedFactor="1.00" vaporized=""/>
    <tripinfo id="27" depart="96.00" departLane="52o_0" departPos="5.10" departSpeed="0.00" departDelay="-0.39" arrival="267.00" arrivalLane="51i_0" arrivalPos="10.00" arrivalSpeed="17.27" duration="171.00" routeLength="615.10" waitingTime="121.00" waitingCount="1" stopTime="0.00" timeLoss="136.86" rerouteNo="0" devices="tripinfo_27" vType="DEFAULT_VEHTYPE" speedFactor="0.95" vaporized=""/>
    <tripinfo id="16" depart="57.00" departLane="52o_0" departPos="5.10" departSpeed="0.00" departDelay="-0.12" arrival="270.00" arrivalLane="53i_0" arrivalPos="10.00" arrivalSpeed="16.21" duration="213.00" routeLength="617.75" waitingTime="161.00" waitingCount="1" stopTime="0.00" timeLoss="175.10" rerouteNo="0" devices="tripinfo_16" vType="DEFAULT_VEHTYPE" speedFactor="0.88" vaporized=""/>
    <tripinfo id="36" depart="128.00" departLane="52o_0" departPos="5.10" departSpeed="0.00" departDelay="-0.52" arrival="270.00" arrivalLane="54i_0" arrivalPos="10.00" arrivalSpeed="18.81" duration="142.00" routeLength="596.93" waitingTime="92.00" waitingCount="1" stopTime="0.00" timeLoss="108.39" rerouteNo="0" devices="tripinfo_36" vType="DEFAULT_VEHTYPE" speedFactor="0.97" vaporized=""/>
    <tripinfo id="49" depart="174.00" departLane="52o_0" departPos="5.10" departSpeed="0.00" departDelay="-0.93" arrival="270.00" arrivalLane="51i_1" arrivalPos="10.00" arrivalSpeed="16.38" duration="96.00" routeLength="615.10" waitingTime="46.00" waitingCount="1" stopTime="0.00" timeLoss="58.47" rerouteNo="0" devices="tripinfo_49" vType="DEFAULT_VEHTYPE" speedFactor="0.85" vaporized=""/>
    <tripinfo id="37" depart="132.00" departLane="52o_0" departPos="5.10" departSpeed="0.00" departDelay="-0.09" arrival="271.00" arrivalLane="54i_0" arrivalPos="10.00" arrivalSpeed="19.91" duration="139.00" routeLength="596.93" waitingTime="91.00" waitingCount="1" stopTime="0.00" timeLoss="111.88" rerouteNo="0" devices="tripinfo_37" vType="DEFAULT_VEHTYPE" speedFactor="1.18" vaporized=""/>
    <tripinfo id="18" depart="64.00" departLane="52o_0" departPos="5.10" departSpeed="0.00" departDelay="-0.26" arrival="272.00" arrivalLane="53i_0" arrivalPos="10.00" arrivalSpeed="17.44" duration="208.00" routeLength="617.75" waitingTime="157.00" waitingCount="1" stopTime="0.00" timeLoss="172.51" rerouteNo="0" devices="tripinfo_18" vType="DEFAULT_VEHTYPE" speedFactor="0.94" vaporized=""/>
    <tripinfo id="48" depart="171.00" departLane="52o_0" departPos="5.10" departSpeed="0.00" departDelay="-0.36" arrival="272.00" arrivalLane="51i_1" arrivalPos="10.00" arrivalSpeed="15.95" duration="101.00" routeLength="615.10" waitingTime="44.00" waitingCount="1" stopTime="0.00" timeLoss="64.27" rerouteNo="0" devices="tripinfo_48" vType="DEFAULT_VEHTYPE" speedFactor="0.88" vaporized=""/>
    <tripinfo id="40" depart="142.00" departLane="52o_0" departPos="5.10" departSpeed="0.00" departDelay="-0.80" arrival="273.00" arrivalLane="54i_0" arrivalPos="10.00" arrivalSpeed="19.13" duration="131.00" routeLength="596.93" waitingTime="82.00" waitingCount="1" stopTime="0.00" timeLoss="100.54" rerouteNo="0" devices="tripinfo_40" vType="DEFAULT_VEHTYPE" speedFactor="1.03" vaporized=""/>
    <tripinfo id="22" depart="78.00" departLane="52o_0" departPos="5.10" departSpeed="0.00" departDelay="-0.54" arrival="274.00" arrivalLane="53i_0" arrivalPos="10.00" arrivalSpeed="18.47" duration="196.00" routeLength="617.75" waitingTime="145.00" waitingCount="1" stopTime="0.00" timeLoss="161.48" rerouteNo="0" devices="tripinfo_22" vType="DEFAULT_VEHTYPE" speedFactor="0.98" vaporized=""/>
    <tripinfo id="38" depart="135.00" departLane="52o_0" departPos="5.10" departSpeed="0.00" departDelay="-0.66" arrival="275.00" arrivalLane="53i_0" arrivalPos="10.00" arrivalSpeed="19.53" duration="140.00" routeLength="617.75" waitingTime="90.00" waitingCount="1" stopTime="0.00" timeLoss="109.92" rerouteNo="0" devices="tripinfo_38" vType="DEFAULT_VEHTYPE" speedFactor="1.10" vaporized=""/>
    <tripinfo id="43" depart="153.00" departLane="52o_0" departPos="5.10" departSpeed="0.00" departDelay="-0.51" arrival="277.00" arrivalLane="54i_0" arrivalPos="10.00" arrivalSpeed="19.00" duration="124.00" routeLength="596.93" waitingTime="73.00" waitingCount="1" stopTime="0.00" timeLoss="92.18" rerouteNo="0" devices="tripinfo_43" vType="DEFAULT_VEHTYPE" speedFactor="1.04" vaporized=""/>
    <tripinfo id="53" depart="189.00" departLane="52o_0" departPos="5.10" departSpeed="0.00" departDelay="-0.21" arrival="277.00" arrivalLane="53i_0" arrivalPos="10.00" arrivalSpeed="20.12" duration="88.00" routeLength="617.75" waitingTime="37.00" waitingCount="1" stopTime="0.00" timeLoss="57.12" rerouteNo="0" devices="tripinfo_53" vType="DEFAULT_VEHTYPE" speedFactor="1.10" vaporized=""/>
    <tripinfo id="62" depart="221.00" departLane="52o_0" departPos="5.10" departSpeed="0.00" departDelay="-0.34" arrival="279.00" arrivalLane="54i_0" arrivalPos="10.00" arrivalSpeed="18.78" duration="58.00" routeLength="596.93" waitingTime="6.00" waitingCount="1" stopTime="0.00" timeLoss="27.03" rerouteNo="0" devices="tripinfo_62" vType="DEFAULT_VEHTYPE" speedFactor="1.02" vaporized=""/>
    <tripinfo id="54" depart="192.00" departLane="52o_0" departPos="5.10" departSpeed="0.00" departDelay="-0.78" arrival="280.00" arrivalLane="53i_0" arrivalPos="10.00" arrivalSpeed="19.05" duration="88.00" routeLength="617.75" waitingTime="35.00" waitingCount="1" stopTime="0.00" timeLoss="54.64" rerouteNo="0" devices="tripinfo_54" vType="DEFAULT_VEHTYPE" speedFactor="1.00" vaporized=""/>
    <tripinfo id="70" depart="249.00" departLane="52o_0" departPos="5.10" departSpeed="0.00" departDelay="-0.90" arrival="290.00" arrivalLane="54i_0" arrivalPos="10.00" arrivalSpeed="19.48" duration="41.00" routeLength="596.93" waitingTime="0.00" waitingCount="0" stopTime="0.00" timeLoss="9.51" rerouteNo="0" devices="tripinfo_70" vType="DEFAULT_VEHTYPE" speedFactor="1.02" vaporized=""/>
    <tripinfo id="74" depart="264.00" departLane="52o_0" departPos="5.10" departSpeed="0.00" departDelay="-0.18" arrival="307.00" arrivalLane="53i_0" arrivalPos="10.00" arrivalSpeed="17.57" duration="43.00" routeLength="617.75" waitingTime="0.00" waitingCount="0" stopTime="0.00" timeLoss="8.43" rerouteNo="0" devices="tripinfo_74" vType="DEFAULT_VEHTYPE" speedFactor="0.96" vaporized=""/>
    <tripinfo id="77" depart="274.00" departLane="52o_0" departPos="5.10" departSpeed="0.00" departDelay="-0.89" arrival="312.00" arrivalLane="51i_0" arrivalPos="10.00" arrivalSpeed="17.97" duration="38.00" routeLength="615.10" waitingTime="0.00" waitingCount="0" stopTime="0.00" timeLoss="5.44" rerouteNo="0" devices="tripinfo_77" vType="DEFAULT_VEHTYPE" speedFactor="0.98" vaporized=""/>
    <tripinfo id="80" depart="285.00" departLane="52o_0" departPos="5.10" departSpeed="0.00" departDelay="-0.60" arrival="325.00" arrivalLane="54i_0" arrivalPos="10.00" arrivalSpeed="18.96" duration="40.00" routeLength="596.93" waitingTime="0.00" waitingCount="0" stopTime="0.00" timeLoss="9.71" rerouteNo="0" devices="tripinfo_80" vType="DEFAULT_VEHTYPE" speedFactor="1.03" vaporized=""/>
    <tripinfo id="34" depart="121.00" departLane="53o_0" departPos="5.10" departSpeed="0.00" departDelay="-0.38" arrival="354.00" arrivalLane="54i_0" arrivalPos="10.00" arrivalSpeed="19.14" duration="233.00" routeLength="615.10" waitingTime="189.00" waitingCount="1" stopTime="0.00" timeLoss="201.07" rerouteNo="0" devices="tripinfo_34" vType="DEFAULT_VEHTYPE" speedFactor="0.99" vaporized=""/>
    <tripinfo id="35" depart="124.00" departLane="53o_0" departPos="5.10" departSpeed="0.00" departDelay="-0.95" arrival="354.00" arrivalLane="54i_1" arrivalPos="10.00" arrivalSpeed="19.11" duration="230.00" routeLength="615.10" waitingTime="184.00" waitingCount="1" stopTime="0.00" timeLoss="198.41" rerouteNo="0" devices="tripinfo_35" vType="DEFAULT_VEHTYPE" speedFactor="1.02" vaporized=""/>
    <tripinfo id="52" depart="185.00" departLane="53o_0" departPos="5.10" departSpeed="0.00" departDelay="-0.64" arrival="355.00" arrivalLane="51i_0" arrivalPos="10.00" arrivalSpeed="18.56" duration="170.00" routeLength="617.75" waitingTime="126.00" waitingCount="1" stopTime="0.00" timeLoss="137.00" rerouteNo="0" devices="tripinfo_52" vType="DEFAULT_VEHTYPE" speedFactor="1.02" vaporized=""/>
    <tripinfo id="55" depart="196.00" departLane="53o_0" departPos="5.10" departSpeed="0.00" departDelay="-0.35" arrival="357.00" arrivalLane="51i_0" arrivalPos="10.00" arrivalSpeed="18.73" duration="161.00" routeLength="617.75" waitingTime="114.00" waitingCount="1" stopTime="0.00" timeLoss="127.22" rerouteNo="0" devices="tripinfo_55" vType="DEFAULT_VEHTYPE" speedFactor="1.00" vaporized=""/>
    <tripinfo id="39" depart="139.00" departLane="53o_0" departPos="5.10" departSpeed="0.00" departDelay="-0.23" arrival="358.00" arrivalLane="52i_0" arrivalPos="10.00" arrivalSpeed="16.43" duration="219.00" routeLength="596.93" waitingTime="171.00" waitingCount="1" stopTime="0.00" timeLoss="182.85" rerouteNo="0" devices="tripinfo_39" vType="DEFAULT_VEHTYPE" speedFactor="0.90" vaporized=""/>
    <tripinfo id="51" depart="182.00" departLane="53o_0" departPos="5.10" departSpeed="0.00" departDelay="-0.07" arrival="359.00" arrivalLane="52i_0" arrivalPos="10.00" arrivalSpeed="18.85" duration="177.00" routeLength="596.93" waitingTime="130.00" waitingCount="1" stopTime="0.00" timeLoss="149.91" rerouteNo="0" devices="tripinfo_51" vType="DEFAULT_VEHTYPE" speedFactor="1.17" vaporized=""/>
    <tripinfo id="60" depart="214.00" departLane="53o_0" departPos="5.10" departSpeed="0.00" departDelay="-0.20" arrival="359.00" arrivalLane="51i_0" arrivalPos="10.00" arrivalSpeed="20.09" duration="145.00" routeLength="617.75" waitingTime="98.00" waitingCount="1" stopTime="0.00" timeLoss="114.50" rerouteNo="0" devices="tripinfo_60" vType="DEFAULT_VEHTYPE" speedFactor="1.08" vaporized=""/>
    <tripinfo id="61" depart="217.00" departLane="53o_0" departPos="5.10" departSpeed="0.00" departDelay="-0.77" arrival="361.00" arrivalLane="52i_0" arrivalPos="10.00" arrivalSpeed="21.14" duration="144.00" routeLength="596.93" waitingTime="95.00" waitingCount="1" stopTime="0.00" timeLoss="114.57" rerouteNo="0" devices="tripinfo_61" vType="DEFAULT_VEHTYPE" speedFactor="1.12" vaporized=""/>
    <tripinfo id="69" depart="246.00" departLane="53o_0" departPos="5.10" departSpeed="0.00" departDelay="-0.33" arrival="362.00" arrivalLane="52i_0" arrivalPos="10.00" arrivalSpeed="19.26" duration="116.00" routeLength="596.93" waitingTime="68.00" waitingCount="1" stopTime="0.00" timeLoss="85.41" rerouteNo="0" devices="tripinfo_69" vType="DEFAULT_VEHTYPE" speedFactor="1.02" vaporized=""/>
    <tripinfo id="71" depart="253.00" departLane="53o_0" departPos="5.10" departSpeed="0.00" departDelay="-0.47" arrival="363.00" arrivalLane="51i_0" arrivalPos="10.00" arrivalSpeed="18.06" duration="110.00" routeLength="617.75" waitingTime="61.00" waitingCount="1" stopTime="0.00" timeLoss="76.33" rerouteNo="0" devices="tripinfo_71" vType="DEFAULT_VEHTYPE" speedFactor="0.97" vaporized=""/>
    <tripinfo id="82" depart="292.00" departLane="53o_0" departPos="5.10" departSpeed="0.00" departDelay="-0.74" arrival="366.00" arrivalLane="52i_0" arrivalPos="10.00" arrivalSpeed="19.10" duration="74.00" routeLength="596.93" waitingTime="24.00" waitingCount="1" stopTime="0.00" timeLoss="41.81" rerouteNo="0" devices="tripinfo_82" vType="DEFAULT_VEHTYPE" speedFactor="1.02" vaporized=""/>
    <tripinfo id="90" depart="321.00" departLane="53o_0" departPos="5.10" departSpeed="0.00" departDelay="-0.30" arrival="366.00" arrivalLane="51i_0" arrivalPos="10.00" arrivalSpeed="19.04" duration="45.00" routeLength="617.75" waitingTime="0.00" waitingCount="0" stopTime="0.00" timeLoss="12.23" rerouteNo="0" devices="tripinfo_90" vType="DEFAULT_VEHTYPE" speedFactor="1.02" vaporized=""/>
    <tripinfo id="98" depart="349.00" departLane="53o_0" departPos="5.10" departSpeed="0.00" departDelay="-0.86" arrival="387.00" arrivalLane="51i_0" arrivalPos="10.00" arrivalSpeed="20.90" duration="38.00" routeLength="617.75" waitingTime="0.00" waitingCount="0" stopTime="0.00" timeLoss="8.27" rerouteNo="0" devices="tripinfo_98" vType="DEFAULT_VEHTYPE" speedFactor="1.12" vaporized=""/>
    <tripinfo id="101" depart="360.00" departLane="53o_0" departPos="5.10" departSpeed="0.00" departDelay="-0.57" arrival="401.00" arrivalLane="52i_0" arrivalPos="10.00" arrivalSpeed="18.07" duration="41.00" routeLength="596.93" waitingTime="0.00" waitingCount="0" stopTime="0.00" timeLoss="8.26" rerouteNo="0" devices="tripinfo_101" vType="DEFAULT_VEHTYPE" speedFactor="0.96" vaporized=""/>
    <tripinfo id="105" depart="374.00" departLane="53o_0" departPos="5.10" departSpeed="0.00" departDelay="-0.85" arrival="413.00" arrivalLane="52i_0" arrivalPos="10.00" arrivalSpeed="20.01" duration="39.00" routeLength="596.93" waitingTime="0.00" waitingCount="0" stopTime="0.00" timeLoss="9.67" rerouteNo="0" devices="tripinfo_105" vType="DEFAULT_VEHTYPE" speedFactor="1.07" vaporized=""/>
    <tripinfo id="107" depart="381.00" departLane="53o_0" departPos="5.10" departSpeed="0.00" departDelay="-0.99" arrival="421.00" arrivalLane="51i_0" arrivalPos="10.00" arrivalSpeed="19.02" duration="40.00" routeLength="617.75" waitingTime="0.00" waitingCount="0" stopTime="0.00" timeLoss="7.68" rerouteNo="0" devices="tripinfo_107" vType="DEFAULT_VEHTYPE" speedFactor="1.03" vaporized=""/>