<?xml version="1.0" encoding="UTF-8"?>

<!-- generated on Thu Nov  7 22:55:01 2019 by Eclipse SUMO Version 1.2.0
<configuration xmlns:xsi="http://www.w3.org/2001/XMLSchema-instance" xsi:noNamespaceSchemaLocation="http://sumo.dlr.de/xsd/sumoConfiguration.xsd">

    <input>
        <net-file value="simulation_files/sumocfgs/../networks/isolated_3_lanes_4_stages.net.xml"/>
        <route-files value="simulation_files/sumocfgs/../routes/isolated_3_lanes_40p.rou.xml"/>
    </input>

    <output>
        <tripinfo-output value="./output/exp21_rf_20p/ql__5_tripinfo_isolated.xml"/>
    </output>

    <time>
        <begin value="0"/>
        <step-length value="1"/>
    </time>

    <report>
        <verbose value="true"/>
        <no-step-log value="true"/>
    </report>

    <gui_only>
        <tracker-interval value="1"/>
    </gui_only>

</configuration>
-->

<tripinfos xmlns:xsi="http://www.w3.org/2001/XMLSchema-instance" xsi:noNamespaceSchemaLocation="http://sumo.dlr.de/xsd/tripinfo_file.xsd">
    <tripinfo id="8" depart="15.00" departLane="52o_0" departPos="5.10" departSpeed="0.00" departDelay="0.68" arrival="55.00" arrivalLane="51i_1" arrivalPos="10.00" arrivalSpeed="17.36" duration="40.00" routeLength="615.10" waitingTime="0.00" waitingCount="0" stopTime="0.00" timeLoss="5.42" rerouteNo="0" devices="tripinfo_8" vType="DEFAULT_VEHTYPE" speedFactor="0.94" vaporized=""/>
    <tripinfo id="7" depart="12.00" departLane="52o_0" departPos="5.10" departSpeed="0.00" departDelay="-0.53" arrival="57.00" arrivalLane="54i_0" arrivalPos="10.00" arrivalSpeed="16.24" duration="45.00" routeLength="596.93" waitingTime="0.00" waitingCount="0" stopTime="0.00" timeLoss="8.52" rerouteNo="0" devices="tripinfo_7" vType="DEFAULT_VEHTYPE" speedFactor="0.89" vaporized=""/>
    <tripinfo id="13" depart="23.00" departLane="52o_0" departPos="5.10" departSpeed="0.00" departDelay="-0.27" arrival="57.00" arrivalLane="51i_0" arrivalPos="10.00" arrivalSpeed="20.74" duration="34.00" routeLength="615.10" waitingTime="0.00" waitingCount="0" stopTime="0.00" timeLoss="5.47" rerouteNo="0" devices="tripinfo_13" vType="DEFAULT_VEHTYPE" speedFactor="1.12" vaporized=""/>
    <tripinfo id="16" depart="28.00" departLane="52o_0" departPos="5.10" departSpeed="0.00" departDelay="-0.64" arrival="70.00" arrivalLane="51i_0" arrivalPos="10.00" arrivalSpeed="16.06" duration="42.00" routeLength="615.10" waitingTime="0.00" waitingCount="0" stopTime="0.00" timeLoss="5.12" rerouteNo="0" devices="tripinfo_16" vType="DEFAULT_VEHTYPE" speedFactor="0.88" vaporized=""/>
    <tripinfo id="18" depart="32.00" departLane="52o_0" departPos="5.10" departSpeed="0.00" departDelay="-0.22" arrival="71.00" arrivalLane="51i_0" arrivalPos="10.00" arrivalSpeed="17.28" duration="39.00" routeLength="615.10" waitingTime="0.00" waitingCount="0" stopTime="0.00" timeLoss="4.94" rerouteNo="0" devices="tripinfo_18" vType="DEFAULT_VEHTYPE" speedFactor="0.94" vaporized=""/>
    <tripinfo id="20" depart="35.00" departLane="52o_0" departPos="5.10" departSpeed="0.00" departDelay="-0.80" arrival="75.00" arrivalLane="54i_0" arrivalPos="10.00" arrivalSpeed="19.54" duration="40.00" routeLength="596.93" waitingTime="0.00" waitingCount="0" stopTime="0.00" timeLoss="8.71" rerouteNo="0" devices="tripinfo_20" vType="DEFAULT_VEHTYPE" speedFactor="1.02" vaporized=""/>
    <tripinfo id="26" depart="46.00" departLane="52o_0" departPos="5.10" departSpeed="0.00" departDelay="-0.54" arrival="86.00" arrivalLane="51i_0" arrivalPos="10.00" arrivalSpeed="16.79" duration="40.00" routeLength="615.10" waitingTime="0.00" waitingCount="0" stopTime="0.00" timeLoss="5.42" rerouteNo="0" devices="tripinfo_26" vType="DEFAULT_VEHTYPE" speedFactor="0.92" vaporized=""/>
    <tripinfo id="27" depart="49.00" departLane="52o_0" departPos="5.10" departSpeed="0.00" departDelay="0.67" arrival="88.00" arrivalLane="51i_0" arrivalPos="10.00" arrivalSpeed="18.08" duration="39.00" routeLength="615.10" waitingTime="0.00" waitingCount="0" stopTime="0.00" timeLoss="5.57" rerouteNo="0" devices="tripinfo_27" vType="DEFAULT_VEHTYPE" speedFactor="0.95" vaporized=""/>
    <tripinfo id="37" depart="66.00" departLane="52o_0" departPos="5.10" departSpeed="0.00" departDelay="-0.23" arrival="99.00" arrivalLane="51i_0" arrivalPos="10.00" arrivalSpeed="21.83" duration="33.00" routeLength="615.10" waitingTime="0.00" waitingCount="0" stopTime="0.00" timeLoss="5.94" rerouteNo="0" devices="tripinfo_37" vType="DEFAULT_VEHTYPE" speedFactor="1.18" vaporized=""/>
    <tripinfo id="34" depart="60.00" departLane="52o_0" departPos="5.10" departSpeed="0.00" departDelay="-0.86" arrival="101.00" arrivalLane="53i_0" arrivalPos="10.00" arrivalSpeed="18.73" duration="41.00" routeLength="617.75" waitingTime="0.00" waitingCount="0" stopTime="0.00" timeLoss="7.04" rerouteNo="0" devices="tripinfo_34" vType="DEFAULT_VEHTYPE" speedFactor="0.99" vaporized=""/>
    <tripinfo id="38" depart="69.00" departLane="52o_0" departPos="5.10" departSpeed="0.00" departDelay="0.98" arrival="107.00" arrivalLane="54i_0" arrivalPos="10.00" arrivalSpeed="21.30" duration="38.00" routeLength="596.93" waitingTime="0.00" waitingCount="0" stopTime="0.00" timeLoss="9.23" rerouteNo="0" devices="tripinfo_38" vType="DEFAULT_VEHTYPE" speedFactor="1.10" vaporized=""/>
    <tripinfo id="43" depart="76.00" departLane="52o_0" departPos="5.10" departSpeed="0.00" departDelay="-0.97" arrival="116.00" arrivalLane="54i_0" arrivalPos="10.00" arrivalSpeed="19.84" duration="40.00" routeLength="596.93" waitingTime="0.00" waitingCount="0" stopTime="0.00" timeLoss="9.15" rerouteNo="0" devices="tripinfo_43" vType="DEFAULT_VEHTYPE" speedFactor="1.04" vaporized=""/>
    <tripinfo id="46" depart="82.00" departLane="52o_0" departPos="5.10" departSpeed="0.00" departDelay="-0.34" arrival="120.00" arrivalLane="51i_0" arrivalPos="10.00" arrivalSpeed="19.20" duration="38.00" routeLength="615.10" waitingTime="0.00" waitingCount="0" stopTime="0.00" timeLoss="6.00" rerouteNo="0" devices="tripinfo_46" vType="DEFAULT_VEHTYPE" speedFactor="1.00" vaporized=""/>
    <tripinfo id="51" depart="91.00" departLane="52o_0" departPos="5.10" departSpeed="0.00" departDelay="-0.29" arrival="129.00" arrivalLane="53i_0" arrivalPos="10.00" arrivalSpeed="21.97" duration="38.00" routeLength="617.75" waitingTime="0.00" waitingCount="0" stopTime="0.00" timeLoss="9.24" rerouteNo="0" devices="tripinfo_51" vType="DEFAULT_VEHTYPE" speedFactor="1.17" vaporized=""/>
    <tripinfo id="52" depart="94.00" departLane="52o_0" departPos="5.10" departSpeed="0.00" departDelay="0.92" arrival="136.00" arrivalLane="53i_0" arrivalPos="10.00" arrivalSpeed="19.71" duration="42.00" routeLength="617.75" waitingTime="0.00" waitingCount="0" stopTime="0.00" timeLoss="8.80" rerouteNo="0" devices="tripinfo_52" vType="DEFAULT_VEHTYPE" speedFactor="1.02" vaporized=""/>
    <tripinfo id="53" depart="97.00" departLane="52o_0" departPos="5.10" departSpeed="0.00" departDelay="2.13" arrival="137.00" arrivalLane="53i_0" arrivalPos="10.00" arrivalSpeed="20.43" duration="40.00" routeLength="617.75" waitingTime="0.00" waitingCount="0" stopTime="0.00" timeLoss="9.61" rerouteNo="0" devices="tripinfo_53" vType="DEFAULT_VEHTYPE" speedFactor="1.10" vaporized=""/>
    <tripinfo id="19" depart="34.00" departLane="53o_0" departPos="5.10" departSpeed="0.00" departDelay="-0.01" arrival="146.00" arrivalLane="54i_0" arrivalPos="10.00" arrivalSpeed="22.11" duration="112.00" routeLength="615.10" waitingTime="69.00" waitingCount="1" stopTime="0.00" timeLoss="84.46" rerouteNo="0" devices="tripinfo_19" vType="DEFAULT_VEHTYPE" speedFactor="1.16" vaporized=""/>
    <tripinfo id="31" depart="55.00" departLane="53o_0" departPos="5.10" departSpeed="0.00" departDelay="-0.49" arrival="148.00" arrivalLane="52i_0" arrivalPos="10.00" arrivalSpeed="21.22" duration="93.00" routeLength="596.93" waitingTime="50.00" waitingCount="1" stopTime="0.00" timeLoss="65.25" rerouteNo="0" devices="tripinfo_31" vType="DEFAULT_VEHTYPE" speedFactor="1.15" vaporized=""/>
    <tripinfo id="0" depart="0.00" departLane="53o_0" departPos="5.10" departSpeed="0.00" departDelay="0.00" arrival="149.00" arrivalLane="51i_0" arrivalPos="10.00" arrivalSpeed="20.38" duration="149.00" routeLength="617.75" waitingTime="105.00" waitingCount="1" stopTime="0.00" timeLoss="117.24" rerouteNo="0" devices="tripinfo_0" vType="DEFAULT_VEHTYPE" speedFactor="1.06" vaporized=""/>
    <tripinfo id="56" depart="100.00" departLane="53o_0" departPos="5.10" departSpeed="0.00" departDelay="-0.24" arrival="150.00" arrivalLane="54i_1" arrivalPos="10.00" arrivalSpeed="16.77" duration="50.00" routeLength="615.10" waitingTime="3.00" waitingCount="1" stopTime="0.00" timeLoss="13.99" rerouteNo="0" devices="tripinfo_56" vType="DEFAULT_VEHTYPE" speedFactor="0.90" vaporized=""/>
    <tripinfo id="4" depart="7.00" departLane="53o_0" departPos="5.10" departSpeed="0.00" departDelay="-0.16" arrival="151.00" arrivalLane="51i_0" arrivalPos="10.00" arrivalSpeed="19.08" duration="144.00" routeLength="617.75" waitingTime="99.00" waitingCount="1" stopTime="0.00" timeLoss="112.04" rerouteNo="0" devices="tripinfo_4" vType="DEFAULT_VEHTYPE" speedFactor="1.03" vaporized=""/>
    <tripinfo id="35" depart="62.00" departLane="53o_0" departPos="5.10" departSpeed="0.00" departDelay="-0.65" arrival="152.00" arrivalLane="52i_0" arrivalPos="10.00" arrivalSpeed="18.55" duration="90.00" routeLength="596.93" waitingTime="44.00" waitingCount="1" stopTime="0.00" timeLoss="58.09" rerouteNo="0" devices="tripinfo_35" vType="DEFAULT_VEHTYPE" speedFactor="1.02" vaporized=""/>
    <tripinfo id="14" depart="25.00" departLane="53o_0" departPos="5.10" departSpeed="0.00" departDelay="-0.06" arrival="154.00" arrivalLane="51i_0" arrivalPos="10.00" arrivalSpeed="18.28" duration="129.00" routeLength="617.75" waitingTime="82.00" waitingCount="1" stopTime="0.00" timeLoss="94.98" rerouteNo="0" devices="tripinfo_14" vType="DEFAULT_VEHTYPE" speedFactor="0.99" vaporized=""/>
    <tripinfo id="41" depart="73.00" departLane="53o_0" departPos="5.10" departSpeed="0.00" departDelay="-0.39" arrival="156.00" arrivalLane="52i_0" arrivalPos="10.00" arrivalSpeed="17.44" duration="83.00" routeLength="596.93" waitingTime="35.00" waitingCount="1" stopTime="0.00" timeLoss="48.89" rerouteNo="0" devices="tripinfo_41" vType="DEFAULT_VEHTYPE" speedFactor="0.96" vaporized=""/>
    <tripinfo id="44" depart="78.00" departLane="53o_0" departPos="5.10" departSpeed="0.00" departDelay="-0.76" arrival="157.00" arrivalLane="52i_0" arrivalPos="10.00" arrivalSpeed="19.58" duration="79.00" routeLength="596.93" waitingTime="30.00" waitingCount="1" stopTime="0.00" timeLoss="48.71" rerouteNo="0" devices="tripinfo_44" vType="DEFAULT_VEHTYPE" speedFactor="1.04" vaporized=""/>
    <tripinfo id="15" depart="28.00" departLane="53o_0" departPos="5.10" departSpeed="0.00" departDelay="1.15" arrival="158.00" arrivalLane="51i_0" arrivalPos="10.00" arrivalSpeed="17.67" duration="130.00" routeLength="617.75" waitingTime="80.00" waitingCount="1" stopTime="0.00" timeLoss="94.24" rerouteNo="0" devices="tripinfo_15" vType="DEFAULT_VEHTYPE" speedFactor="0.93" vaporized=""/>
    <tripinfo id="57" depart="103.00" departLane="53o_0" departPos="5.10" departSpeed="0.00" departDelay="0.97" arrival="159.00" arrivalLane="52i_0" arrivalPos="10.00" arrivalSpeed="22.12" duration="56.00" routeLength="596.93" waitingTime="8.00" waitingCount="1" stopTime="0.00" timeLoss="27.78" rerouteNo="0" devices="tripinfo_57" vType="DEFAULT_VEHTYPE" speedFactor="1.14" vaporized=""/>
    <tripinfo id="67" depart="119.00" departLane="53o_0" departPos="5.10" departSpeed="0.00" departDelay="-0.93" arrival="160.00" arrivalLane="54i_1" arrivalPos="10.00" arrivalSpeed="17.52" duration="41.00" routeLength="615.10" waitingTime="0.00" waitingCount="0" stopTime="0.00" timeLoss="5.55" rerouteNo="0" devices="tripinfo_67" vType="DEFAULT_VEHTYPE" speedFactor="0.91" vaporized=""/>
    <tripinfo id="23" depart="41.00" departLane="53o_0" departPos="5.10" departSpeed="0.00" departDelay="-0.17" arrival="161.00" arrivalLane="51i_0" arrivalPos="10.00" arrivalSpeed="16.91" duration="120.00" routeLength="617.75" waitingTime="67.00" waitingCount="1" stopTime="0.00" timeLoss="82.36" rerouteNo="0" devices="tripinfo_23" vType="DEFAULT_VEHTYPE" speedFactor="0.89" vaporized=""/>
    <tripinfo id="69" depart="123.00" departLane="53o_0" departPos="5.10" departSpeed="0.00" departDelay="-0.51" arrival="164.00" arrivalLane="52i_0" arrivalPos="10.00" arrivalSpeed="19.70" duration="41.00" routeLength="596.93" waitingTime="0.00" waitingCount="0" stopTime="0.00" timeLoss="9.19" rerouteNo="0" devices="tripinfo_69" vType="DEFAULT_VEHTYPE" speedFactor="1.02" vaporized=""/>
    <tripinfo id="24" depart="44.00" departLane="53o_0" departPos="5.10" departSpeed="0.00" departDelay="1.04" arrival="165.00" arrivalLane="51i_0" arrivalPos="10.00" arrivalSpeed="15.60" duration="121.00" routeLength="617.75" waitingTime="63.00" waitingCount="1" stopTime="0.00" timeLoss="80.98" rerouteNo="0" devices="tripinfo_24" vType="DEFAULT_VEHTYPE" speedFactor="0.83" vaporized=""/>
    <tripinfo id="47" depart="84.00" departLane="53o_0" departPos="5.10" departSpeed="0.00" departDelay="-0.13" arrival="166.00" arrivalLane="51i_1" arrivalPos="10.00" arrivalSpeed="16.41" duration="82.00" routeLength="617.75" waitingTime="28.00" waitingCount="1" stopTime="0.00" timeLoss="44.89" rerouteNo="0" devices="tripinfo_47" vType="DEFAULT_VEHTYPE" speedFactor="0.90" vaporized=""/>
    <tripinfo id="62" depart="110.00" departLane="53o_0" departPos="5.10" departSpeed="0.00" departDelay="-0.98" arrival="167.00" arrivalLane="51i_0" arrivalPos="10.00" arrivalSpeed="18.51" duration="57.00" routeLength="617.75" waitingTime="3.00" waitingCount="1" stopTime="0.00" timeLoss="24.21" rerouteNo="0" devices="tripinfo_62" vType="DEFAULT_VEHTYPE" speedFactor="1.02" vaporized=""/>
    <tripinfo id="74" depart="132.00" departLane="53o_0" departPos="5.10" departSpeed="0.00" departDelay="-0.46" arrival="175.00" arrivalLane="51i_0" arrivalPos="10.00" arrivalSpeed="17.79" duration="43.00" routeLength="617.75" waitingTime="0.00" waitingCount="0" stopTime="0.00" timeLoss="8.58" rerouteNo="0" devices="tripinfo_74" vType="DEFAULT_VEHTYPE" speedFactor="0.96" vaporized=""/>
    <tripinfo id="79" depart="142.00" departLane="53o_0" departPos="5.10" departSpeed="0.00" departDelay="0.59" arrival="177.00" arrivalLane="54i_0" arrivalPos="10.00" arrivalSpeed="19.98" duration="35.00" routeLength="615.10" waitingTime="0.00" waitingCount="0" stopTime="0.00" timeLoss="5.88" rerouteNo="0" devices="tripinfo_79" vType="DEFAULT_VEHTYPE" speedFactor="1.09" vaporized=""/>
    <tripinfo id="78" depart="139.00" departLane="53o_0" departPos="5.10" departSpeed="0.00" departDelay="-0.62" arrival="180.00" arrivalLane="51i_0" arrivalPos="10.00" arrivalSpeed="19.19" duration="41.00" routeLength="617.75" waitingTime="0.00" waitingCount="0" stopTime="0.00" timeLoss="7.91" rerouteNo="0" devices="tripinfo_78" vType="DEFAULT_VEHTYPE" speedFactor="1.01" vaporized=""/>
    <tripinfo id="81" depart="145.00" departLane="53o_0" departPos="5.10" departSpeed="0.00" departDelay="0.01" arrival="182.00" arrivalLane="54i_0" arrivalPos="10.00" arrivalSpeed="18.64" duration="37.00" routeLength="615.10" waitingTime="0.00" waitingCount="0" stopTime="0.00" timeLoss="5.25" rerouteNo="0" devices="tripinfo_81" vType="DEFAULT_VEHTYPE" speedFactor="1.00" vaporized=""/>
    <tripinfo id="93" depart="166.00" departLane="53o_0" departPos="5.10" departSpeed="0.00" departDelay="-0.47" arrival="206.00" arrivalLane="54i_0" arrivalPos="10.00" arrivalSpeed="17.14" duration="40.00" routeLength="615.10" waitingTime="0.00" waitingCount="0" stopTime="0.00" timeLoss="5.18" rerouteNo="0" devices="tripinfo_93" vType="DEFAULT_VEHTYPE" speedFactor="0.92" vaporized=""/>
    <tripinfo id="91" depart="162.00" departLane="53o_0" departPos="5.10" departSpeed="0.00" departDelay="-0.89" arrival="207.00" arrivalLane="51i_0" arrivalPos="10.00" arrivalSpeed="16.61" duration="45.00" routeLength="617.75" waitingTime="0.00" waitingCount="0" stopTime="0.00" timeLoss="7.27" rerouteNo="0" devices="tripinfo_91" vType="DEFAULT_VEHTYPE" speedFactor="0.89" vaporized=""/>
    <tripinfo id="94" depart="169.00" departLane="53o_0" departPos="5.10" departSpeed="0.00" departDelay="0.74" arrival="209.00" arrivalLane="51i_0" arrivalPos="10.00" arrivalSpeed="20.18" duration="40.00" routeLength="617.75" waitingTime="0.00" waitingCount="0" stopTime="0.00" timeLoss="9.14" rerouteNo="0" devices="tripinfo_94" vType="DEFAULT_VEHTYPE" speedFactor="1.09" vaporized=""/>
    <tripinfo id="12" depart="22.00" departLane="51o_0" departPos="5.10" departSpeed="0.00" departDelay="0.52" arrival="212.00" arrivalLane="52i_0" arrivalPos="10.00" arrivalSpeed="19.35" duration="190.00" routeLength="615.10" waitingTime="147.00" waitingCount="1" stopTime="0.00" timeLoss="159.47" rerouteNo="0" devices="tripinfo_12" vType="DEFAULT_VEHTYPE" speedFactor="1.05" vaporized=""/>
    <tripinfo id="2" depart="4.00" departLane="51o_0" departPos="5.10" departSpeed="0.00" departDelay="0.42" arrival="213.00" arrivalLane="53i_0" arrivalPos="10.00" arrivalSpeed="18.52" duration="209.00" routeLength="596.93" waitingTime="163.00" waitingCount="1" stopTime="0.00" timeLoss="177.43" rerouteNo="0" devices="tripinfo_2" vType="DEFAULT_VEHTYPE" speedFactor="1.01" vaporized=""/>
    <tripinfo id="28" depart="50.00" departLane="51o_0" departPos="5.10" departSpeed="0.00" departDelay="-0.12" arrival="213.00" arrivalLane="52i_1" arrivalPos="10.00" arrivalSpeed="21.46" duration="163.00" routeLength="615.10" waitingTime="117.00" waitingCount="2" stopTime="0.00" timeLoss="134.67" rerouteNo="0" devices="tripinfo_28" vType="DEFAULT_VEHTYPE" speedFactor="1.13" vaporized=""/>
    <tripinfo id="1" depart="1.00" departLane="51o_0" departPos="5.10" departSpeed="0.00" departDelay="-0.79" arrival="215.00" arrivalLane="54i_0" arrivalPos="10.00" arrivalSpeed="18.13" duration="214.00" routeLength="617.75" waitingTime="165.00" waitingCount="1" stopTime="0.00" timeLoss="178.45" rerouteNo="0" devices="tripinfo_1" vType="DEFAULT_VEHTYPE" speedFactor="0.94" vaporized=""/>
    <tripinfo id="3" depart="7.00" departLane="51o_0" departPos="5.10" departSpeed="0.00" departDelay="1.63" arrival="215.00" arrivalLane="53i_0" arrivalPos="10.00" arrivalSpeed="19.86" duration="208.00" routeLength="596.93" waitingTime="162.00" waitingCount="1" stopTime="0.00" timeLoss="178.41" rerouteNo="0" devices="tripinfo_3" vType="DEFAULT_VEHTYPE" speedFactor="1.08" vaporized=""/>
    <tripinfo id="25" depart="44.00" departLane="51o_0" departPos="5.10" departSpeed="0.00" departDelay="-0.75" arrival="218.00" arrivalLane="54i_0" arrivalPos="10.00" arrivalSpeed="16.33" duration="174.00" routeLength="617.75" waitingTime="124.00" waitingCount="1" stopTime="0.00" timeLoss="136.35" rerouteNo="0" devices="tripinfo_25" vType="DEFAULT_VEHTYPE" speedFactor="0.87" vaporized=""/>
    <tripinfo id="29" depart="53.00" departLane="51o_0" departPos="5.10" departSpeed="0.00" departDelay="1.09" arrival="218.00" arrivalLane="52i_2" arrivalPos="10.00" arrivalSpeed="17.29" duration="165.00" routeLength="615.10" waitingTime="117.00" waitingCount="1" stopTime="0.00" timeLoss="130.54" rerouteNo="0" devices="tripinfo_29" vType="DEFAULT_VEHTYPE" speedFactor="0.93" vaporized=""/>
    <tripinfo id="39" depart="69.00" departLane="51o_0" departPos="5.10" departSpeed="0.00" departDelay="-0.81" arrival="218.00" arrivalLane="52i_1" arrivalPos="10.00" arrivalSpeed="17.46" duration="149.00" routeLength="615.10" waitingTime="97.00" waitingCount="1" stopTime="0.00" timeLoss="113.21" rerouteNo="0" devices="tripinfo_39" vType="DEFAULT_VEHTYPE" speedFactor="0.90" vaporized=""/>
    <tripinfo id="65" depart="118.00" departLane="51o_0" departPos="5.10" departSpeed="0.00" departDelay="1.65" arrival="220.00" arrivalLane="52i_1" arrivalPos="10.00" arrivalSpeed="17.08" duration="102.00" routeLength="615.10" waitingTime="53.00" waitingCount="1" stopTime="0.00" timeLoss="65.33" rerouteNo="0" devices="tripinfo_65" vType="DEFAULT_VEHTYPE" speedFactor="0.88" vaporized=""/>
    <tripinfo id="5" depart="10.00" departLane="51o_0" departPos="5.10" departSpeed="0.00" departDelay="1.05" arrival="221.00" arrivalLane="53i_0" arrivalPos="10.00" arrivalSpeed="15.20" duration="211.00" routeLength="596.93" waitingTime="158.00" waitingCount="1" stopTime="0.00" timeLoss="172.16" rerouteNo="0" devices="tripinfo_5" vType="DEFAULT_VEHTYPE" speedFactor="0.83" vaporized=""/>
    <tripinfo id="64" depart="115.00" departLane="51o_0" departPos="5.10" departSpeed="0.00" departDelay="0.44" arrival="221.00" arrivalLane="52i_1" arrivalPos="10.00" arrivalSpeed="17.41" duration="106.00" routeLength="615.10" waitingTime="54.00" waitingCount="2" stopTime="0.00" timeLoss="72.01" rerouteNo="0" devices="tripinfo_64" vType="DEFAULT_VEHTYPE" speedFactor="0.94" vaporized=""/>
    <tripinfo id="11" depart="19.00" departLane="51o_0" departPos="5.10" departSpeed="0.00" departDelay="-0.69" arrival="222.00" arrivalLane="53i_0" arrivalPos="10.00" arrivalSpeed="18.48" duration="203.00" routeLength="596.93" waitingTime="154.00" waitingCount="1" stopTime="0.00" timeLoss="171.74" rerouteNo="0" devices="tripinfo_11" vType="DEFAULT_VEHTYPE" speedFactor="1.03" vaporized=""/>
    <tripinfo id="71" depart="128.00" departLane="1i_0" departPos="5.10" departSpeed="0.00" departDelay="0.91" arrival="223.00" arrivalLane="52i_1" arrivalPos="10.00" arrivalSpeed="18.31" duration="95.00" routeLength="605.00" waitingTime="48.00" waitingCount="1" stopTime="0.00" timeLoss="62.30" rerouteNo="0" devices="tripinfo_71" vType="DEFAULT_VEHTYPE" speedFactor="0.97" vaporized=""/>
    <tripinfo id="32" depart="57.00" departLane="51o_0" departPos="5.10" departSpeed="0.00" departDelay="-0.28" arrival="224.00" arrivalLane="53i_0" arrivalPos="10.00" arrivalSpeed="19.12" duration="167.00" routeLength="596.93" waitingTime="116.00" waitingCount="1" stopTime="0.00" timeLoss="135.02" rerouteNo="0" devices="tripinfo_32" vType="DEFAULT_VEHTYPE" speedFactor="1.01" vaporized=""/>
    <tripinfo id="49" depart="87.00" departLane="51o_0" departPos="5.10" departSpeed="0.00" departDelay="-0.71" arrival="224.00" arrivalLane="54i_0" arrivalPos="10.00" arrivalSpeed="15.36" duration="137.00" routeLength="617.75" waitingTime="84.00" waitingCount="1" stopTime="0.00" timeLoss="97.89" rerouteNo="0" devices="tripinfo_49" vType="DEFAULT_VEHTYPE" speedFactor="0.85" vaporized=""/>
    <tripinfo id="54" depart="96.00" departLane="51o_0" departPos="5.10" departSpeed="0.00" departDelay="-0.66" arrival="225.00" arrivalLane="54i_0" arrivalPos="10.00" arrivalSpeed="17.08" duration="129.00" routeLength="617.75" waitingTime="79.00" waitingCount="1" stopTime="0.00" timeLoss="96.35" rerouteNo="0" devices="tripinfo_54" vType="DEFAULT_VEHTYPE" speedFactor="1.00" vaporized=""/>
    <tripinfo id="40" depart="72.00" departLane="51o_0" departPos="5.10" departSpeed="0.00" departDelay="0.40" arrival="226.00" arrivalLane="53i_0" arrivalPos="10.00" arrivalSpeed="19.60" duration="154.00" routeLength="596.93" waitingTime="103.00" waitingCount="1" stopTime="0.00" timeLoss="122.27" rerouteNo="0" devices="tripinfo_40" vType="DEFAULT_VEHTYPE" speedFactor="1.03" vaporized=""/>
    <tripinfo id="60" depart="107.00" departLane="51o_0" departPos="5.10" departSpeed="0.00" departDelay="-0.40" arrival="227.00" arrivalLane="53i_0" arrivalPos="10.00" arrivalSpeed="19.80" duration="120.00" routeLength="596.93" waitingTime="70.00" waitingCount="1" stopTime="0.00" timeLoss="90.80" rerouteNo="0" devices="tripinfo_60" vType="DEFAULT_VEHTYPE" speedFactor="1.08" vaporized=""/>
    <tripinfo id="66" depart="121.00" departLane="51o_0" departPos="5.10" departSpeed="0.00" departDelay="2.86" arrival="227.00" arrivalLane="54i_0" arrivalPos="10.00" arrivalSpeed="16.78" duration="106.00" routeLength="617.75" waitingTime="52.00" waitingCount="1" stopTime="0.00" timeLoss="69.84" rerouteNo="0" devices="tripinfo_66" vType="DEFAULT_VEHTYPE" speedFactor="0.91" vaporized=""/>
    <tripinfo id="70" depart="125.00" departLane="51o_0" departPos="5.10" departSpeed="0.00" departDelay="-0.30" arrival="229.00" arrivalLane="54i_0" arrivalPos="10.00" arrivalSpeed="19.48" duration="104.00" routeLength="617.75" waitingTime="51.00" waitingCount="1" stopTime="0.00" timeLoss="71.33" rerouteNo="0" devices="tripinfo_70" vType="DEFAULT_VEHTYPE" speedFactor="1.02" vaporized=""/>
    <tripinfo id="86" depart="153.00" departLane="51o_0" departPos="5.10" departSpeed="0.00" departDelay="-0.94" arrival="230.00" arrivalLane="54i_0" arrivalPos="10.00" arrivalSpeed="19.28" duration="77.00" routeLength="617.75" waitingTime="24.00" waitingCount="1" stopTime="0.00" timeLoss="44.26" rerouteNo="0" devices="tripinfo_86" vType="DEFAULT_VEHTYPE" speedFactor="1.00" vaporized=""/>
    <tripinfo id="6" depart="10.00" departLane="4i_0" departPos="5.10" departSpeed="0.00" departDelay="-0.74" arrival="235.00" arrivalLane="51i_0" arrivalPos="10.00" arrivalSpeed="19.83" duration="225.00" routeLength="586.83" waitingTime="181.00" waitingCount="1" stopTime="0.00" timeLoss="194.74" rerouteNo="0" devices="tripinfo_6" vType="DEFAULT_VEHTYPE" speedFactor="1.05" vaporized=""/>
    <tripinfo id="21" depart="37.00" departLane="54o_0" departPos="5.10" departSpeed="0.00" departDelay="-0.59" arrival="236.00" arrivalLane="53i_1" arrivalPos="10.00" arrivalSpeed="19.18" duration="199.00" routeLength="615.10" waitingTime="154.00" waitingCount="1" stopTime="0.00" timeLoss="167.00" rerouteNo="0" devices="tripinfo_21" vType="DEFAULT_VEHTYPE" speedFactor="1.01" vaporized=""/>
    <tripinfo id="30" depart="53.00" departLane="54o_0" departPos="5.10" departSpeed="0.00" departDelay="-0.70" arrival="237.00" arrivalLane="51i_0" arrivalPos="10.00" arrivalSpeed="21.82" duration="184.00" routeLength="596.93" waitingTime="140.00" waitingCount="1" stopTime="0.00" timeLoss="156.47" rerouteNo="0" devices="tripinfo_30" vType="DEFAULT_VEHTYPE" speedFactor="1.18" vaporized=""/>
    <tripinfo id="36" depart="64.00" departLane="54o_0" departPos="5.10" departSpeed="0.00" departDelay="-0.44" arrival="238.00" arrivalLane="53i_1" arrivalPos="10.00" arrivalSpeed="18.33" duration="174.00" routeLength="615.10" waitingTime="125.00" waitingCount="1" stopTime="0.00" timeLoss="141.24" rerouteNo="0" devices="tripinfo_36" vType="DEFAULT_VEHTYPE" speedFactor="0.97" vaporized=""/>
    <tripinfo id="9" depart="16.00" departLane="54o_0" departPos="5.10" departSpeed="0.00" departDelay="-0.11" arrival="239.00" arrivalLane="2o_0" arrivalPos="286.40" arrivalSpeed="16.23" duration="223.00" routeLength="607.65" waitingTime="173.00" waitingCount="1" stopTime="0.00" timeLoss="184.42" rerouteNo="0" devices="tripinfo_9" vType="DEFAULT_VEHTYPE" speedFactor="0.86" vaporized=""/>
    <tripinfo id="42" depart="75.00" departLane="54o_0" departPos="5.10" departSpeed="0.00" departDelay="-0.18" arrival="239.00" arrivalLane="51i_0" arrivalPos="10.00" arrivalSpeed="20.03" duration="164.00" routeLength="596.93" waitingTime="119.00" waitingCount="1" stopTime="0.00" timeLoss="134.66" rerouteNo="0" devices="tripinfo_42" vType="DEFAULT_VEHTYPE" speedFactor="1.09" vaporized=""/>
    <tripinfo id="59" depart="106.00" departLane="54o_0" departPos="5.10" departSpeed="0.00" departDelay="0.39" arrival="240.00" arrivalLane="53i_1" arrivalPos="10.00" arrivalSpeed="18.05" duration="134.00" routeLength="615.10" waitingTime="82.00" waitingCount="1" stopTime="0.00" timeLoss="100.96" rerouteNo="0" devices="tripinfo_59" vType="DEFAULT_VEHTYPE" speedFactor="0.97" vaporized=""/>
    <tripinfo id="10" depart="19.00" departLane="54o_0" departPos="5.10" departSpeed="0.00" departDelay="1.10" arrival="241.00" arrivalLane="52i_0" arrivalPos="10.00" arrivalSpeed="19.53" duration="222.00" routeLength="617.75" waitingTime="172.00" waitingCount="1" stopTime="0.00" timeLoss="191.09" rerouteNo="0" devices="tripinfo_10" vType="DEFAULT_VEHTYPE" speedFactor="1.09" vaporized=""/>
    <tripinfo id="17" depart="30.00" departLane="54o_0" departPos="5.10" departSpeed="0.00" departDelay="-0.43" arrival="242.00" arrivalLane="52i_0" arrivalPos="10.00" arrivalSpeed="17.03" duration="212.00" routeLength="617.75" waitingTime="164.00" waitingCount="1" stopTime="0.00" timeLoss="177.08" rerouteNo="0" devices="tripinfo_17" vType="DEFAULT_VEHTYPE" speedFactor="0.94" vaporized=""/>
    <tripinfo id="45" depart="80.00" departLane="54o_0" departPos="5.10" departSpeed="0.00" departDelay="-0.55" arrival="242.00" arrivalLane="51i_0" arrivalPos="10.00" arrivalSpeed="20.41" duration="162.00" routeLength="596.93" waitingTime="117.00" waitingCount="1" stopTime="0.00" timeLoss="132.31" rerouteNo="0" devices="tripinfo_45" vType="DEFAULT_VEHTYPE" speedFactor="1.09" vaporized=""/>
    <tripinfo id="61" depart="109.00" departLane="54o_0" departPos="5.10" departSpeed="0.00" departDelay="-0.19" arrival="242.00" arrivalLane="53i_1" arrivalPos="10.00" arrivalSpeed="20.37" duration="133.00" routeLength="615.10" waitingTime="80.00" waitingCount="2" stopTime="0.00" timeLoss="103.92" rerouteNo="0" devices="tripinfo_61" vType="DEFAULT_VEHTYPE" speedFactor="1.12" vaporized=""/>
    <tripinfo id="88" depart="157.00" departLane="54o_0" departPos="5.10" departSpeed="0.00" departDelay="-0.52" arrival="243.00" arrivalLane="53i_1" arrivalPos="10.00" arrivalSpeed="18.53" duration="86.00" routeLength="615.10" waitingTime="41.00" waitingCount="1" stopTime="0.00" timeLoss="54.40" rerouteNo="0" devices="tripinfo_88" vType="DEFAULT_VEHTYPE" speedFactor="1.01" vaporized=""/>
    <tripinfo id="22" depart="40.00" departLane="54o_0" departPos="5.10" departSpeed="0.00" departDelay="0.62" arrival="244.00" arrivalLane="52i_0" arrivalPos="10.00" arrivalSpeed="18.68" duration="204.00" routeLength="617.75" waitingTime="154.00" waitingCount="1" stopTime="0.00" timeLoss="169.95" rerouteNo="0" devices="tripinfo_22" vType="DEFAULT_VEHTYPE" speedFactor="0.98" vaporized=""/>