<?xml version="1.0" encoding="UTF-8"?>

<!-- generated on Fri Nov  8 23:35:22 2019 by Eclipse SUMO Version 1.2.0
<configuration xmlns:xsi="http://www.w3.org/2001/XMLSchema-instance" xsi:noNamespaceSchemaLocation="http://sumo.dlr.de/xsd/sumoConfiguration.xsd">

    <input>
        <net-file value="simulation_files/sumocfgs/../networks/isolated_3_lanes_4_stages.net.xml"/>
        <route-files value="simulation_files/sumocfgs/../routes/isolated_3_lanes_20p.rou.xml"/>
    </input>

    <output>
        <tripinfo-output value="./output/exp21_rf_20p/throughput_pwtl__2_tripinfo_isolated.xml"/>
    </output>

    <time>
        <begin value="0"/>
        <step-length value="1"/>
    </time>

    <report>
        <verbose value="true"/>
        <no-step-log value="true"/>
    </report>

    <gui_only>
        <tracker-interval value="1"/>
    </gui_only>

</configuration>
-->

<tripinfos xmlns:xsi="http://www.w3.org/2001/XMLSchema-instance" xsi:noNamespaceSchemaLocation="http://sumo.dlr.de/xsd/tripinfo_file.xsd">
    <tripinfo id="2" depart="7.00" departLane="52o_0" departPos="5.10" departSpeed="0.00" departDelay="-0.14" arrival="48.00" arrivalLane="54i_0" arrivalPos="10.00" arrivalSpeed="19.14" duration="41.00" routeLength="596.93" waitingTime="0.00" waitingCount="0" stopTime="0.00" timeLoss="9.18" rerouteNo="0" devices="tripinfo_2" vType="DEFAULT_VEHTYPE" speedFactor="1.01" vaporized=""/>
    <tripinfo id="6" depart="21.00" departLane="52o_0" departPos="5.10" departSpeed="0.00" departDelay="-0.42" arrival="57.00" arrivalLane="51i_0" arrivalPos="10.00" arrivalSpeed="19.72" duration="36.00" routeLength="615.10" waitingTime="0.00" waitingCount="0" stopTime="0.00" timeLoss="5.27" rerouteNo="0" devices="tripinfo_6" vType="DEFAULT_VEHTYPE" speedFactor="1.05" vaporized=""/>
    <tripinfo id="5" depart="17.00" departLane="52o_0" departPos="5.10" departSpeed="0.00" departDelay="-0.85" arrival="64.00" arrivalLane="53i_0" arrivalPos="10.00" arrivalSpeed="15.40" duration="47.00" routeLength="617.75" waitingTime="0.00" waitingCount="0" stopTime="0.00" timeLoss="6.72" rerouteNo="0" devices="tripinfo_5" vType="DEFAULT_VEHTYPE" speedFactor="0.83" vaporized=""/>
    <tripinfo id="7" depart="24.00" departLane="52o_0" departPos="5.10" departSpeed="0.00" departDelay="-0.99" arrival="66.00" arrivalLane="51i_0" arrivalPos="10.00" arrivalSpeed="16.20" duration="42.00" routeLength="615.10" waitingTime="0.00" waitingCount="0" stopTime="0.00" timeLoss="5.58" rerouteNo="0" devices="tripinfo_7" vType="DEFAULT_VEHTYPE" speedFactor="0.89" vaporized=""/>
    <tripinfo id="8" depart="28.00" departLane="52o_0" departPos="5.10" departSpeed="0.00" departDelay="-0.56" arrival="67.00" arrivalLane="51i_0" arrivalPos="10.00" arrivalSpeed="17.67" duration="39.00" routeLength="615.10" waitingTime="0.00" waitingCount="0" stopTime="0.00" timeLoss="5.05" rerouteNo="0" devices="tripinfo_8" vType="DEFAULT_VEHTYPE" speedFactor="0.94" vaporized=""/>
    <tripinfo id="11" depart="39.00" departLane="52o_0" departPos="5.10" departSpeed="0.00" departDelay="-0.27" arrival="80.00" arrivalLane="53i_0" arrivalPos="10.00" arrivalSpeed="19.90" duration="41.00" routeLength="617.75" waitingTime="0.00" waitingCount="0" stopTime="0.00" timeLoss="8.14" rerouteNo="0" devices="tripinfo_11" vType="DEFAULT_VEHTYPE" speedFactor="1.03" vaporized=""/>
    <tripinfo id="14" depart="49.00" departLane="52o_0" departPos="5.10" departSpeed="0.00" departDelay="-0.98" arrival="91.00" arrivalLane="53i_0" arrivalPos="10.00" arrivalSpeed="18.01" duration="42.00" routeLength="617.75" waitingTime="0.00" waitingCount="0" stopTime="0.00" timeLoss="8.44" rerouteNo="0" devices="tripinfo_14" vType="DEFAULT_VEHTYPE" speedFactor="0.99" vaporized=""/>
    <tripinfo id="16" depart="57.00" departLane="52o_0" departPos="5.10" departSpeed="0.00" departDelay="-0.12" arrival="102.00" arrivalLane="53i_0" arrivalPos="10.00" arrivalSpeed="16.48" duration="45.00" routeLength="617.75" waitingTime="0.00" waitingCount="0" stopTime="0.00" timeLoss="7.50" rerouteNo="0" devices="tripinfo_16" vType="DEFAULT_VEHTYPE" speedFactor="0.88" vaporized=""/>
    <tripinfo id="0" depart="0.00" departLane="53o_0" departPos="5.10" departSpeed="0.00" departDelay="0.00" arrival="108.00" arrivalLane="52i_0" arrivalPos="10.00" arrivalSpeed="19.38" duration="108.00" routeLength="596.93" waitingTime="65.00" waitingCount="1" stopTime="0.00" timeLoss="77.45" rerouteNo="0" devices="tripinfo_0" vType="DEFAULT_VEHTYPE" speedFactor="1.06" vaporized=""/>
    <tripinfo id="12" depart="42.00" departLane="53o_0" departPos="5.10" departSpeed="0.00" departDelay="-0.84" arrival="109.00" arrivalLane="54i_1" arrivalPos="10.00" arrivalSpeed="19.65" duration="67.00" routeLength="615.10" waitingTime="22.00" waitingCount="1" stopTime="0.00" timeLoss="36.07" rerouteNo="0" devices="tripinfo_12" vType="DEFAULT_VEHTYPE" speedFactor="1.05" vaporized=""/>
    <tripinfo id="15" depart="53.00" departLane="53o_0" departPos="5.10" departSpeed="0.00" departDelay="-0.55" arrival="110.00" arrivalLane="54i_1" arrivalPos="10.00" arrivalSpeed="18.01" duration="57.00" routeLength="615.10" waitingTime="9.00" waitingCount="1" stopTime="0.00" timeLoss="22.82" rerouteNo="0" devices="tripinfo_15" vType="DEFAULT_VEHTYPE" speedFactor="0.93" vaporized=""/>
    <tripinfo id="17" depart="60.00" departLane="53o_0" departPos="5.10" departSpeed="0.00" departDelay="-0.69" arrival="112.00" arrivalLane="52i_0" arrivalPos="10.00" arrivalSpeed="17.51" duration="52.00" routeLength="596.93" waitingTime="5.00" waitingCount="1" stopTime="0.00" timeLoss="18.05" rerouteNo="0" devices="tripinfo_17" vType="DEFAULT_VEHTYPE" speedFactor="0.94" vaporized=""/>
    <tripinfo id="24" depart="85.00" departLane="53o_0" departPos="5.10" departSpeed="0.00" departDelay="-0.68" arrival="129.00" arrivalLane="54i_0" arrivalPos="10.00" arrivalSpeed="15.06" duration="44.00" routeLength="615.10" waitingTime="0.00" waitingCount="0" stopTime="0.00" timeLoss="4.81" rerouteNo="0" devices="tripinfo_24" vType="DEFAULT_VEHTYPE" speedFactor="0.83" vaporized=""/>
    <tripinfo id="1" depart="3.00" departLane="51o_0" departPos="5.10" departSpeed="0.00" departDelay="-0.57" arrival="150.00" arrivalLane="53i_0" arrivalPos="10.00" arrivalSpeed="17.57" duration="147.00" routeLength="596.93" waitingTime="100.00" waitingCount="1" stopTime="0.00" timeLoss="113.45" rerouteNo="0" devices="tripinfo_1" vType="DEFAULT_VEHTYPE" speedFactor="0.94" vaporized=""/>
    <tripinfo id="13" depart="46.00" departLane="51o_0" departPos="5.10" departSpeed="0.00" departDelay="-0.41" arrival="152.00" arrivalLane="53i_0" arrivalPos="10.00" arrivalSpeed="20.07" duration="106.00" routeLength="596.93" waitingTime="61.00" waitingCount="1" stopTime="0.00" timeLoss="76.96" rerouteNo="0" devices="tripinfo_13" vType="DEFAULT_VEHTYPE" speedFactor="1.12" vaporized=""/>
    <tripinfo id="9" depart="32.00" departLane="51o_0" departPos="5.10" departSpeed="0.00" departDelay="-0.13" arrival="153.00" arrivalLane="54i_0" arrivalPos="10.00" arrivalSpeed="16.15" duration="121.00" routeLength="617.75" waitingTime="70.00" waitingCount="1" stopTime="0.00" timeLoss="82.75" rerouteNo="0" devices="tripinfo_9" vType="DEFAULT_VEHTYPE" speedFactor="0.86" vaporized=""/>
    <tripinfo id="21" depart="74.00" departLane="51o_0" departPos="5.10" departSpeed="0.00" departDelay="-0.97" arrival="154.00" arrivalLane="53i_0" arrivalPos="10.00" arrivalSpeed="19.53" duration="80.00" routeLength="596.93" waitingTime="35.00" waitingCount="1" stopTime="0.00" timeLoss="48.48" rerouteNo="0" devices="tripinfo_21" vType="DEFAULT_VEHTYPE" speedFactor="1.01" vaporized=""/>
    <tripinfo id="25" depart="89.00" departLane="51o_0" departPos="5.10" departSpeed="0.00" departDelay="-0.25" arrival="155.00" arrivalLane="54i_0" arrivalPos="10.00" arrivalSpeed="16.24" duration="66.00" routeLength="617.75" waitingTime="16.00" waitingCount="1" stopTime="0.00" timeLoss="28.20" rerouteNo="0" devices="tripinfo_25" vType="DEFAULT_VEHTYPE" speedFactor="0.87" vaporized=""/>
    <tripinfo id="23" depart="82.00" departLane="51o_0" departPos="5.10" departSpeed="0.00" departDelay="-0.11" arrival="159.00" arrivalLane="53i_0" arrivalPos="10.00" arrivalSpeed="16.34" duration="77.00" routeLength="596.93" waitingTime="25.00" waitingCount="1" stopTime="0.00" timeLoss="40.93" rerouteNo="0" devices="tripinfo_23" vType="DEFAULT_VEHTYPE" speedFactor="0.89" vaporized=""/>
    <tripinfo id="26" depart="92.00" departLane="51o_0" departPos="5.10" departSpeed="0.00" departDelay="-0.82" arrival="161.00" arrivalLane="53i_0" arrivalPos="10.00" arrivalSpeed="17.41" duration="69.00" routeLength="596.93" waitingTime="16.00" waitingCount="1" stopTime="0.00" timeLoss="33.87" rerouteNo="0" devices="tripinfo_26" vType="DEFAULT_VEHTYPE" speedFactor="0.92" vaporized=""/>
    <tripinfo id="3" depart="10.00" departLane="54o_0" departPos="5.10" departSpeed="0.00" departDelay="-0.71" arrival="178.00" arrivalLane="53i_0" arrivalPos="10.00" arrivalSpeed="20.58" duration="168.00" routeLength="615.10" waitingTime="124.00" waitingCount="1" stopTime="0.00" timeLoss="138.55" rerouteNo="0" devices="tripinfo_3" vType="DEFAULT_VEHTYPE" speedFactor="1.08" vaporized=""/>
    <tripinfo id="4" depart="14.00" departLane="54o_0" departPos="5.10" departSpeed="0.00" departDelay="-0.28" arrival="179.00" arrivalLane="52i_0" arrivalPos="10.00" arrivalSpeed="19.43" duration="165.00" routeLength="617.75" waitingTime="120.00" waitingCount="1" stopTime="0.00" timeLoss="132.93" rerouteNo="0" devices="tripinfo_4" vType="DEFAULT_VEHTYPE" speedFactor="1.03" vaporized=""/>
    <tripinfo id="20" depart="71.00" departLane="54o_0" departPos="5.10" departSpeed="0.00" departDelay="-0.40" arrival="179.00" arrivalLane="53i_1" arrivalPos="10.00" arrivalSpeed="19.34" duration="108.00" routeLength="615.10" waitingTime="63.00" waitingCount="1" stopTime="0.00" timeLoss="76.42" rerouteNo="0" devices="tripinfo_20" vType="DEFAULT_VEHTYPE" speedFactor="1.02" vaporized=""/>
    <tripinfo id="28" depart="99.00" departLane="54o_0" departPos="5.10" departSpeed="0.00" departDelay="-0.96" arrival="179.00" arrivalLane="51i_0" arrivalPos="10.00" arrivalSpeed="21.28" duration="80.00" routeLength="596.93" waitingTime="37.00" waitingCount="1" stopTime="0.00" timeLoss="51.65" rerouteNo="0" devices="tripinfo_28" vType="DEFAULT_VEHTYPE" speedFactor="1.13" vaporized=""/>
    <tripinfo id="10" depart="35.00" departLane="54o_0" departPos="5.10" departSpeed="0.00" departDelay="-0.70" arrival="181.00" arrivalLane="52i_0" arrivalPos="10.00" arrivalSpeed="20.10" duration="146.00" routeLength="617.75" waitingTime="102.00" waitingCount="1" stopTime="0.00" timeLoss="115.20" rerouteNo="0" devices="tripinfo_10" vType="DEFAULT_VEHTYPE" speedFactor="1.09" vaporized=""/>
    <tripinfo id="33" depart="117.00" departLane="54o_0" departPos="5.10" departSpeed="0.00" departDelay="-0.81" arrival="182.00" arrivalLane="51i_0" arrivalPos="10.00" arrivalSpeed="22.35" duration="65.00" routeLength="596.93" waitingTime="22.00" waitingCount="1" stopTime="0.00" timeLoss="37.00" rerouteNo="0" devices="tripinfo_33" vType="DEFAULT_VEHTYPE" speedFactor="1.17" vaporized=""/>
    <tripinfo id="29" depart="103.00" departLane="54o_0" departPos="5.10" departSpeed="0.00" departDelay="-0.53" arrival="183.00" arrivalLane="53i_1" arrivalPos="10.00" arrivalSpeed="16.91" duration="80.00" routeLength="615.10" waitingTime="29.00" waitingCount="1" stopTime="0.00" timeLoss="45.28" rerouteNo="0" devices="tripinfo_29" vType="DEFAULT_VEHTYPE" speedFactor="0.93" vaporized=""/>
    <tripinfo id="42" depart="149.00" departLane="54o_0" departPos="5.10" departSpeed="0.00" departDelay="-0.94" arrival="188.00" arrivalLane="51i_0" arrivalPos="10.00" arrivalSpeed="20.34" duration="39.00" routeLength="596.93" waitingTime="0.00" waitingCount="0" stopTime="0.00" timeLoss="9.64" rerouteNo="0" devices="tripinfo_42" vType="DEFAULT_VEHTYPE" speedFactor="1.09" vaporized=""/>
    <tripinfo id="44" depart="157.00" departLane="54o_0" departPos="5.10" departSpeed="0.00" departDelay="-0.08" arrival="194.00" arrivalLane="53i_0" arrivalPos="10.00" arrivalSpeed="20.23" duration="37.00" routeLength="615.10" waitingTime="0.00" waitingCount="0" stopTime="0.00" timeLoss="6.21" rerouteNo="0" devices="tripinfo_44" vType="DEFAULT_VEHTYPE" speedFactor="1.04" vaporized=""/>
    <tripinfo id="47" depart="167.00" departLane="54o_0" departPos="5.10" departSpeed="0.00" departDelay="-0.79" arrival="213.00" arrivalLane="52i_0" arrivalPos="10.00" arrivalSpeed="16.96" duration="46.00" routeLength="617.75" waitingTime="0.00" waitingCount="0" stopTime="0.00" timeLoss="8.82" rerouteNo="0" devices="tripinfo_47" vType="DEFAULT_VEHTYPE" speedFactor="0.90" vaporized=""/>
    <tripinfo id="50" depart="178.00" departLane="54o_0" departPos="5.10" departSpeed="0.00" departDelay="-0.50" arrival="224.00" arrivalLane="52i_0" arrivalPos="10.00" arrivalSpeed="15.84" duration="46.00" routeLength="617.75" waitingTime="0.00" waitingCount="0" stopTime="0.00" timeLoss="6.79" rerouteNo="0" devices="tripinfo_50" vType="DEFAULT_VEHTYPE" speedFactor="0.85" vaporized=""/>
    <tripinfo id="27" depart="96.00" departLane="52o_0" departPos="5.10" departSpeed="0.00" departDelay="-0.39" arrival="229.00" arrivalLane="51i_1" arrivalPos="10.00" arrivalSpeed="17.15" duration="133.00" routeLength="615.10" waitingTime="87.00" waitingCount="1" stopTime="0.00" timeLoss="99.52" rerouteNo="0" devices="tripinfo_27" vType="DEFAULT_VEHTYPE" speedFactor="0.95" vaporized=""/>
    <tripinfo id="30" depart="107.00" departLane="52o_0" departPos="5.10" departSpeed="0.00" departDelay="-0.10" arrival="229.00" arrivalLane="54i_0" arrivalPos="10.00" arrivalSpeed="22.66" duration="122.00" routeLength="596.93" waitingTime="79.00" waitingCount="1" stopTime="0.00" timeLoss="94.06" rerouteNo="0" devices="tripinfo_30" vType="DEFAULT_VEHTYPE" speedFactor="1.18" vaporized=""/>
    <tripinfo id="18" depart="64.00" departLane="52o_0" departPos="5.10" departSpeed="0.00" departDelay="-0.26" arrival="231.00" arrivalLane="53i_0" arrivalPos="10.00" arrivalSpeed="17.54" duration="167.00" routeLength="617.75" waitingTime="118.00" waitingCount="1" stopTime="0.00" timeLoss="131.25" rerouteNo="0" devices="tripinfo_18" vType="DEFAULT_VEHTYPE" speedFactor="0.94" vaporized=""/>
    <tripinfo id="19" depart="67.00" departLane="52o_0" departPos="5.10" departSpeed="0.00" departDelay="-0.83" arrival="231.00" arrivalLane="51i_0" arrivalPos="10.00" arrivalSpeed="22.39" duration="164.00" routeLength="615.10" waitingTime="117.00" waitingCount="1" stopTime="0.00" timeLoss="135.72" rerouteNo="0" devices="tripinfo_19" vType="DEFAULT_VEHTYPE" speedFactor="1.16" vaporized=""/>
    <tripinfo id="46" depart="164.00" departLane="52o_0" departPos="5.10" departSpeed="0.00" departDelay="-0.22" arrival="231.00" arrivalLane="51i_1" arrivalPos="10.00" arrivalSpeed="18.52" duration="67.00" routeLength="615.10" waitingTime="18.00" waitingCount="1" stopTime="0.00" timeLoss="34.74" rerouteNo="0" devices="tripinfo_46" vType="DEFAULT_VEHTYPE" speedFactor="1.00" vaporized=""/>
    <tripinfo id="22" depart="78.00" departLane="52o_0" departPos="5.10" departSpeed="0.00" departDelay="-0.54" arrival="232.00" arrivalLane="53i_0" arrivalPos="10.00" arrivalSpeed="18.68" duration="154.00" routeLength="617.75" waitingTime="109.00" waitingCount="1" stopTime="0.00" timeLoss="120.11" rerouteNo="0" devices="tripinfo_22" vType="DEFAULT_VEHTYPE" speedFactor="0.98" vaporized=""/>
    <tripinfo id="36" depart="128.00" departLane="52o_0" departPos="5.10" departSpeed="0.00" departDelay="-0.52" arrival="234.00" arrivalLane="54i_0" arrivalPos="10.00" arrivalSpeed="18.83" duration="106.00" routeLength="596.93" waitingTime="59.00" waitingCount="1" stopTime="0.00" timeLoss="73.27" rerouteNo="0" devices="tripinfo_36" vType="DEFAULT_VEHTYPE" speedFactor="0.97" vaporized=""/>
    <tripinfo id="38" depart="135.00" departLane="52o_0" departPos="5.10" departSpeed="0.00" departDelay="-0.66" arrival="234.00" arrivalLane="53i_0" arrivalPos="10.00" arrivalSpeed="21.08" duration="99.00" routeLength="617.75" waitingTime="53.00" waitingCount="1" stopTime="0.00" timeLoss="68.53" rerouteNo="0" devices="tripinfo_38" vType="DEFAULT_VEHTYPE" speedFactor="1.10" vaporized=""/>
    <tripinfo id="48" depart="171.00" departLane="52o_0" departPos="5.10" departSpeed="0.00" departDelay="-0.36" arrival="235.00" arrivalLane="51i_1" arrivalPos="10.00" arrivalSpeed="15.95" duration="64.00" routeLength="615.10" waitingTime="15.00" waitingCount="1" stopTime="0.00" timeLoss="27.10" rerouteNo="0" devices="tripinfo_48" vType="DEFAULT_VEHTYPE" speedFactor="0.88" vaporized=""/>
    <tripinfo id="37" depart="132.00" departLane="52o_0" departPos="5.10" departSpeed="0.00" departDelay="-0.09" arrival="236.00" arrivalLane="54i_0" arrivalPos="10.00" arrivalSpeed="22.60" duration="104.00" routeLength="596.93" waitingTime="56.00" waitingCount="1" stopTime="0.00" timeLoss="76.96" rerouteNo="0" devices="tripinfo_37" vType="DEFAULT_VEHTYPE" speedFactor="1.18" vaporized=""/>
    <tripinfo id="53" depart="189.00" departLane="52o_0" departPos="5.10" departSpeed="0.00" departDelay="-0.21" arrival="236.00" arrivalLane="53i_0" arrivalPos="10.00" arrivalSpeed="20.43" duration="47.00" routeLength="617.75" waitingTime="0.00" waitingCount="0" stopTime="0.00" timeLoss="16.42" rerouteNo="0" devices="tripinfo_53" vType="DEFAULT_VEHTYPE" speedFactor="1.10" vaporized=""/>
    <tripinfo id="49" depart="174.00" departLane="52o_0" departPos="5.10" departSpeed="0.00" departDelay="-0.93" arrival="237.00" arrivalLane="51i_1" arrivalPos="10.00" arrivalSpeed="16.52" duration="63.00" routeLength="615.10" waitingTime="12.00" waitingCount="1" stopTime="0.00" timeLoss="25.36" rerouteNo="0" devices="tripinfo_49" vType="DEFAULT_VEHTYPE" speedFactor="0.85" vaporized=""/>
    <tripinfo id="40" depart="142.00" departLane="52o_0" departPos="5.10" departSpeed="0.00" departDelay="-0.80" arrival="239.00" arrivalLane="54i_0" arrivalPos="10.00" arrivalSpeed="19.26" duration="97.00" routeLength="596.93" waitingTime="47.00" waitingCount="1" stopTime="0.00" timeLoss="65.12" rerouteNo="0" devices="tripinfo_40" vType="DEFAULT_VEHTYPE" speedFactor="1.03" vaporized=""/>
    <tripinfo id="43" depart="153.00" departLane="52o_0" departPos="5.10" departSpeed="0.00" departDelay="-0.51" arrival="240.00" arrivalLane="54i_0" arrivalPos="10.00" arrivalSpeed="19.11" duration="87.00" routeLength="596.93" waitingTime="39.00" waitingCount="1" stopTime="0.00" timeLoss="56.68" rerouteNo="0" devices="tripinfo_43" vType="DEFAULT_VEHTYPE" speedFactor="1.04" vaporized=""/>
    <tripinfo id="54" depart="192.00" departLane="52o_0" departPos="5.10" departSpeed="0.00" departDelay="-0.78" arrival="240.00" arrivalLane="53i_0" arrivalPos="10.00" arrivalSpeed="18.75" duration="48.00" routeLength="617.75" waitingTime="0.00" waitingCount="0" stopTime="0.00" timeLoss="14.53" rerouteNo="0" devices="tripinfo_54" vType="DEFAULT_VEHTYPE" speedFactor="1.00" vaporized=""/>
    <tripinfo id="62" depart="221.00" departLane="52o_0" departPos="5.10" departSpeed="0.00" departDelay="-0.34" arrival="262.00" arrivalLane="54i_0" arrivalPos="10.00" arrivalSpeed="19.64" duration="41.00" routeLength="596.93" waitingTime="0.00" waitingCount="0" stopTime="0.00" timeLoss="8.78" rerouteNo="0" devices="tripinfo_62" vType="DEFAULT_VEHTYPE" speedFactor="1.02" vaporized=""/>
    <tripinfo id="70" depart="249.00" departLane="52o_0" departPos="5.10" departSpeed="0.00" departDelay="-0.90" arrival="290.00" arrivalLane="54i_0" arrivalPos="10.00" arrivalSpeed="18.71" duration="41.00" routeLength="596.93" waitingTime="0.00" waitingCount="0" stopTime="0.00" timeLoss="9.64" rerouteNo="0" devices="tripinfo_70" vType="DEFAULT_VEHTYPE" speedFactor="1.02" vaporized=""/>
    <tripinfo id="74" depart="264.00" departLane="52o_0" departPos="5.10" departSpeed="0.00" departDelay="-0.18" arrival="306.00" arrivalLane="53i_0" arrivalPos="10.00" arrivalSpeed="17.76" duration="42.00" routeLength="617.75" waitingTime="0.00" waitingCount="0" stopTime="0.00" timeLoss="7.47" rerouteNo="0" devices="tripinfo_74" vType="DEFAULT_VEHTYPE" speedFactor="0.96" vaporized=""/>
    <tripinfo id="77" depart="274.00" departLane="52o_0" departPos="5.10" departSpeed="0.00" departDelay="-0.89" arrival="312.00" arrivalLane="51i_0" arrivalPos="10.00" arrivalSpeed="18.30" duration="38.00" routeLength="615.10" waitingTime="0.00" waitingCount="0" stopTime="0.00" timeLoss="5.68" rerouteNo="0" devices="tripinfo_77" vType="DEFAULT_VEHTYPE" speedFactor="0.98" vaporized=""/>
    <tripinfo id="80" depart="285.00" departLane="52o_0" departPos="5.10" departSpeed="0.00" departDelay="-0.60" arrival="325.00" arrivalLane="54i_0" arrivalPos="10.00" arrivalSpeed="19.21" duration="40.00" routeLength="596.93" waitingTime="0.00" waitingCount="0" stopTime="0.00" timeLoss="9.11" rerouteNo="0" devices="tripinfo_80" vType="DEFAULT_VEHTYPE" speedFactor="1.03" vaporized=""/>
    <tripinfo id="31" depart="110.00" departLane="53o_0" departPos="5.10" departSpeed="0.00" departDelay="-0.67" arrival="338.00" arrivalLane="52i_0" arrivalPos="10.00" arrivalSpeed="21.44" duration="228.00" routeLength="596.93" waitingTime="185.00" waitingCount="1" stopTime="0.00" timeLoss="199.99" rerouteNo="0" devices="tripinfo_31" vType="DEFAULT_VEHTYPE" speedFactor="1.15" vaporized=""/>
    <tripinfo id="32" depart="114.00" departLane="53o_0" departPos="5.10" departSpeed="0.00" departDelay="-0.24" arrival="339.00" arrivalLane="54i_1" arrivalPos="10.00" arrivalSpeed="19.28" duration="225.00" routeLength="615.10" waitingTime="178.00" waitingCount="1" stopTime="0.00" timeLoss="192.65" rerouteNo="0" devices="tripinfo_32" vType="DEFAULT_VEHTYPE" speedFactor="1.01" vaporized=""/>
    <tripinfo id="34" depart="121.00" departLane="53o_0" departPos="5.10" departSpeed="0.00" departDelay="-0.38" arrival="339.00" arrivalLane="54i_2" arrivalPos="10.00" arrivalSpeed="18.87" duration="218.00" routeLength="615.10" waitingTime="173.00" waitingCount="1" stopTime="0.00" timeLoss="185.67" rerouteNo="0" devices="tripinfo_34" vType="DEFAULT_VEHTYPE" speedFactor="0.99" vaporized=""/>
    <tripinfo id="35" depart="124.00" departLane="53o_0" departPos="5.10" departSpeed="0.00" departDelay="-0.95" arrival="340.00" arrivalLane="54i_1" arrivalPos="10.00" arrivalSpeed="19.21" duration="216.00" routeLength="615.10" waitingTime="173.00" waitingCount="1" stopTime="0.00" timeLoss="184.92" rerouteNo="0" devices="tripinfo_35" vType="DEFAULT_VEHTYPE" speedFactor="1.02" vaporized=""/>
    <tripinfo id="52" depart="185.00" departLane="53o_0" departPos="5.10" departSpeed="0.00" departDelay="-0.64" arrival="341.00" arrivalLane="51i_0" arrivalPos="10.00" arrivalSpeed="19.29" duration="156.00" routeLength="617.75" waitingTime="111.00" waitingCount="1" stopTime="0.00" timeLoss="123.62" rerouteNo="0" devices="tripinfo_52" vType="DEFAULT_VEHTYPE" speedFactor="1.02" vaporized=""/>
    <tripinfo id="39" depart="139.00" departLane="53o_0" departPos="5.10" departSpeed="0.00" departDelay="-0.23" arrival="343.00" arrivalLane="52i_0" arrivalPos="10.00" arrivalSpeed="16.43" duration="204.00" routeLength="596.93" waitingTime="155.00" waitingCount="1" stopTime="0.00" timeLoss="168.51" rerouteNo="0" devices="tripinfo_39" vType="DEFAULT_VEHTYPE" speedFactor="0.90" vaporized=""/>
    <tripinfo id="55" depart="196.00" departLane="53o_0" departPos="5.10" departSpeed="0.00" departDelay="-0.35" arrival="343.00" arrivalLane="51i_0" arrivalPos="10.00" arrivalSpeed="19.21" duration="147.00" routeLength="617.75" waitingTime="100.00" waitingCount="1" stopTime="0.00" timeLoss="113.65" rerouteNo="0" devices="tripinfo_55" vType="DEFAULT_VEHTYPE" speedFactor="1.00" vaporized=""/>
    <tripinfo id="51" depart="182.00" departLane="53o_0" departPos="5.10" departSpeed="0.00" departDelay="-0.07" arrival="344.00" arrivalLane="52i_0" arrivalPos="10.00" arrivalSpeed="18.46" duration="162.00" routeLength="596.93" waitingTime="117.00" waitingCount="1" stopTime="0.00" timeLoss="134.49" rerouteNo="0" devices="tripinfo_51" vType="DEFAULT_VEHTYPE" speedFactor="1.17" vaporized=""/>
    <tripinfo id="60" depart="214.00" departLane="53o_0" departPos="5.10" departSpeed="0.00" departDelay="-0.20" arrival="346.00" arrivalLane="51i_0" arrivalPos="10.00" arrivalSpeed="20.93" duration="132.00" routeLength="617.75" waitingTime="86.00" waitingCount="1" stopTime="0.00" timeLoss="101.35" rerouteNo="0" devices="tripinfo_60" vType="DEFAULT_VEHTYPE" speedFactor="1.08" vaporized=""/>
    <tripinfo id="61" depart="217.00" departLane="53o_0" departPos="5.10" departSpeed="0.00" departDelay="-0.77" arrival="346.00" arrivalLane="52i_0" arrivalPos="10.00" arrivalSpeed="20.58" duration="129.00" routeLength="596.93" waitingTime="81.00" waitingCount="1" stopTime="0.00" timeLoss="100.27" rerouteNo="0" devices="tripinfo_61" vType="DEFAULT_VEHTYPE" speedFactor="1.12" vaporized=""/>
    <tripinfo id="69" depart="246.00" departLane="53o_0" departPos="5.10" departSpeed="0.00" departDelay="-0.33" arrival="348.00" arrivalLane="52i_0" arrivalPos="10.00" arrivalSpeed="19.20" duration="102.00" routeLength="596.93" waitingTime="54.00" waitingCount="1" stopTime="0.00" timeLoss="70.57" rerouteNo="0" devices="tripinfo_69" vType="DEFAULT_VEHTYPE" speedFactor="1.02" vaporized=""/>
    <tripinfo id="71" depart="253.00" departLane="53o_0" departPos="5.10" departSpeed="0.00" departDelay="-0.47" arrival="349.00" arrivalLane="51i_0" arrivalPos="10.00" arrivalSpeed="18.45" duration="96.00" routeLength="617.75" waitingTime="47.00" waitingCount="1" stopTime="0.00" timeLoss="61.99" rerouteNo="0" devices="tripinfo_71" vType="DEFAULT_VEHTYPE" speedFactor="0.97" vaporized=""/>
    <tripinfo id="82" depart="292.00" departLane="53o_0" departPos="5.10" departSpeed="0.00" departDelay="-0.74" arrival="351.00" arrivalLane="52i_0" arrivalPos="10.00" arrivalSpeed="19.39" duration="59.00" routeLength="596.93" waitingTime="9.00" waitingCount="1" stopTime="0.00" timeLoss="26.94" rerouteNo="0" devices="tripinfo_82" vType="DEFAULT_VEHTYPE" speedFactor="1.02" vaporized=""/>
    <tripinfo id="90" depart="321.00" departLane="53o_0" departPos="5.10" departSpeed="0.00" departDelay="-0.30" arrival="363.00" arrivalLane="51i_0" arrivalPos="10.00" arrivalSpeed="19.52" duration="42.00" routeLength="617.75" waitingTime="0.00" waitingCount="0" stopTime="0.00" timeLoss="9.54" rerouteNo="0" devices="tripinfo_90" vType="DEFAULT_VEHTYPE" speedFactor="1.02" vaporized=""/>
    <tripinfo id="98" depart="349.00" departLane="53o_0" departPos="5.10" departSpeed="0.00" departDelay="-0.86" arrival="387.00" arrivalLane="51i_0" arrivalPos="10.00" arrivalSpeed="20.63" duration="38.00" routeLength="617.75" waitingTime="0.00" waitingCount="0" stopTime="0.00" timeLoss="7.94" rerouteNo="0" devices="tripinfo_98" vType="DEFAULT_VEHTYPE" speedFactor="1.12" vaporized=""/>
    <tripinfo id="101" depart="360.00" departLane="53o_0" departPos="5.10" departSpeed="0.00" departDelay="-0.57" arrival="402.00" arrivalLane="52i_0" arrivalPos="10.00" arrivalSpeed="17.96" duration="42.00" routeLength="596.93" waitingTime="0.00" waitingCount="0" stopTime="0.00" timeLoss="8.44" rerouteNo="0" devices="tripinfo_101" vType="DEFAULT_VEHTYPE" speedFactor="0.96" vaporized=""/>
    <tripinfo id="105" depart="374.00" departLane="53o_0" departPos="5.10" departSpeed="0.00" departDelay="-0.85" arrival="413.00" arrivalLane="52i_0" arrivalPos="10.00" arrivalSpeed="20.81" duration="39.00" routeLength="596.93" waitingTime="0.00" waitingCount="0" stopTime="0.00" timeLoss="9.19" rerouteNo="0" devices="tripinfo_105" vType="DEFAULT_VEHTYPE" speedFactor="1.07" vaporized=""/>
    <tripinfo id="45" depart="160.00" departLane="51o_0" departPos="5.10" departSpeed="0.00" departDelay="-0.65" arrival="418.00" arrivalLane="52i_1" arrivalPos="10.00" arrivalSpeed="21.11" duration="258.00" routeLength="615.10" waitingTime="214.00" waitingCount="1" stopTime="0.00" timeLoss="228.19" rerouteNo="0" devices="tripinfo_45" vType="DEFAULT_VEHTYPE" speedFactor="1.09" vaporized=""/>
    <tripinfo id="41" depart="146.00" departLane="51o_0" departPos="5.10" departSpeed="0.00" departDelay="-0.37" arrival="419.00" arrivalLane="53i_0" arrivalPos="10.00" arrivalSpeed="18.12" duration="273.00" routeLength="596.93" waitingTime="228.00" waitingCount="1" stopTime="0.00" timeLoss="239.81" rerouteNo="0" devices="tripinfo_41" vType="DEFAULT_VEHTYPE" speedFactor="0.96" vaporized=""/>
    <tripinfo id="63" depart="224.00" departLane="51o_0" departPos="5.10" departSpeed="0.00" departDelay="-0.91" arrival="420.00" arrivalLane="54i_0" arrivalPos="10.00" arrivalSpeed="18.77" duration="196.00" routeLength="617.75" waitingTime="148.00" waitingCount="1" stopTime="0.00" timeLoss="162.14" rerouteNo="0" devices="tripinfo_63" vType="DEFAULT_VEHTYPE" speedFactor="0.99" vaporized=""/>
    <tripinfo id="57" depart="203.00" departLane="51o_0" departPos="5.10" departSpeed="0.00" departDelay="-0.49" arrival="421.00" arrivalLane="53i_0" arrivalPos="10.00" arrivalSpeed="21.03" duration="218.00" routeLength="596.93" waitingTime="175.00" waitingCount="1" stopTime="0.00" timeLoss="189.21" rerouteNo="0" devices="tripinfo_57" vType="DEFAULT_VEHTYPE" speedFactor="1.14" vaporized=""/>
    <tripinfo id="66" depart="235.00" departLane="51o_0" departPos="5.10" departSpeed="0.00" departDelay="-0.62" arrival="422.00" arrivalLane="52i_1" arrivalPos="10.00" arrivalSpeed="17.55" duration="187.00" routeLength="615.10" waitingTime="140.00" waitingCount="1" stopTime="0.00" timeLoss="151.43" rerouteNo="0" devices="tripinfo_66" vType="DEFAULT_VEHTYPE" speedFactor="0.91" vaporized=""/>
    <tripinfo id="85" depart="303.00" departLane="51o_0" departPos="5.10" departSpeed="0.00" departDelay="-0.45" arrival="423.00" arrivalLane="52i_1" arrivalPos="10.00" arrivalSpeed="18.65" duration="120.00" routeLength="615.10" waitingTime="70.00" waitingCount="1" stopTime="0.00" timeLoss="87.43" rerouteNo="0" devices="tripinfo_85" vType="DEFAULT_VEHTYPE" speedFactor="0.98" vaporized=""/>