<?xml version="1.0" encoding="UTF-8"?>

<!-- generated on Fri Nov  8 23:33:53 2019 by Eclipse SUMO Version 1.2.0
<configuration xmlns:xsi="http://www.w3.org/2001/XMLSchema-instance" xsi:noNamespaceSchemaLocation="http://sumo.dlr.de/xsd/sumoConfiguration.xsd">

    <input>
        <net-file value="simulation_files/sumocfgs/../networks/isolated_3_lanes_4_stages.net.xml"/>
        <route-files value="simulation_files/sumocfgs/../routes/isolated_3_lanes_20p.rou.xml"/>
    </input>

    <output>
        <tripinfo-output value="./output/exp21_rf_20p/throughput_pwtl__1_tripinfo_isolated.xml"/>
    </output>

    <time>
        <begin value="0"/>
        <step-length value="1"/>
    </time>

    <report>
        <verbose value="true"/>
        <no-step-log value="true"/>
    </report>

    <gui_only>
        <tracker-interval value="1"/>
    </gui_only>

</configuration>
-->

<tripinfos xmlns:xsi="http://www.w3.org/2001/XMLSchema-instance" xsi:noNamespaceSchemaLocation="http://sumo.dlr.de/xsd/tripinfo_file.xsd">
    <tripinfo id="2" depart="7.00" departLane="52o_0" departPos="5.10" departSpeed="0.00" departDelay="-0.14" arrival="48.00" arrivalLane="54i_0" arrivalPos="10.00" arrivalSpeed="19.14" duration="41.00" routeLength="596.93" waitingTime="0.00" waitingCount="0" stopTime="0.00" timeLoss="9.18" rerouteNo="0" devices="tripinfo_2" vType="DEFAULT_VEHTYPE" speedFactor="1.01" vaporized=""/>
    <tripinfo id="6" depart="21.00" departLane="52o_0" departPos="5.10" departSpeed="0.00" departDelay="-0.42" arrival="57.00" arrivalLane="51i_0" arrivalPos="10.00" arrivalSpeed="19.72" duration="36.00" routeLength="615.10" waitingTime="0.00" waitingCount="0" stopTime="0.00" timeLoss="5.27" rerouteNo="0" devices="tripinfo_6" vType="DEFAULT_VEHTYPE" speedFactor="1.05" vaporized=""/>
    <tripinfo id="5" depart="17.00" departLane="52o_0" departPos="5.10" departSpeed="0.00" departDelay="-0.85" arrival="64.00" arrivalLane="53i_0" arrivalPos="10.00" arrivalSpeed="15.40" duration="47.00" routeLength="617.75" waitingTime="0.00" waitingCount="0" stopTime="0.00" timeLoss="6.72" rerouteNo="0" devices="tripinfo_5" vType="DEFAULT_VEHTYPE" speedFactor="0.83" vaporized=""/>
    <tripinfo id="7" depart="24.00" departLane="52o_0" departPos="5.10" departSpeed="0.00" departDelay="-0.99" arrival="66.00" arrivalLane="51i_0" arrivalPos="10.00" arrivalSpeed="16.20" duration="42.00" routeLength="615.10" waitingTime="0.00" waitingCount="0" stopTime="0.00" timeLoss="5.58" rerouteNo="0" devices="tripinfo_7" vType="DEFAULT_VEHTYPE" speedFactor="0.89" vaporized=""/>
    <tripinfo id="8" depart="28.00" departLane="52o_0" departPos="5.10" departSpeed="0.00" departDelay="-0.56" arrival="67.00" arrivalLane="51i_0" arrivalPos="10.00" arrivalSpeed="17.67" duration="39.00" routeLength="615.10" waitingTime="0.00" waitingCount="0" stopTime="0.00" timeLoss="5.05" rerouteNo="0" devices="tripinfo_8" vType="DEFAULT_VEHTYPE" speedFactor="0.94" vaporized=""/>
    <tripinfo id="0" depart="0.00" departLane="53o_0" departPos="5.10" departSpeed="0.00" departDelay="0.00" arrival="78.00" arrivalLane="52i_0" arrivalPos="10.00" arrivalSpeed="20.06" duration="78.00" routeLength="596.93" waitingTime="35.00" waitingCount="1" stopTime="0.00" timeLoss="48.13" rerouteNo="0" devices="tripinfo_0" vType="DEFAULT_VEHTYPE" speedFactor="1.06" vaporized=""/>
    <tripinfo id="12" depart="42.00" departLane="53o_0" departPos="5.10" departSpeed="0.00" departDelay="-0.84" arrival="78.00" arrivalLane="54i_1" arrivalPos="10.00" arrivalSpeed="19.55" duration="36.00" routeLength="615.10" waitingTime="0.00" waitingCount="0" stopTime="0.00" timeLoss="5.67" rerouteNo="0" devices="tripinfo_12" vType="DEFAULT_VEHTYPE" speedFactor="1.05" vaporized=""/>
    <tripinfo id="15" depart="53.00" departLane="53o_0" departPos="5.10" departSpeed="0.00" departDelay="-0.55" arrival="93.00" arrivalLane="54i_0" arrivalPos="10.00" arrivalSpeed="17.03" duration="40.00" routeLength="615.10" waitingTime="0.00" waitingCount="0" stopTime="0.00" timeLoss="5.08" rerouteNo="0" devices="tripinfo_15" vType="DEFAULT_VEHTYPE" speedFactor="0.93" vaporized=""/>
    <tripinfo id="17" depart="60.00" departLane="53o_0" departPos="5.10" departSpeed="0.00" departDelay="-0.69" arrival="103.00" arrivalLane="52i_0" arrivalPos="10.00" arrivalSpeed="18.25" duration="43.00" routeLength="596.93" waitingTime="0.00" waitingCount="0" stopTime="0.00" timeLoss="8.62" rerouteNo="0" devices="tripinfo_17" vType="DEFAULT_VEHTYPE" speedFactor="0.94" vaporized=""/>
    <tripinfo id="1" depart="3.00" departLane="51o_0" departPos="5.10" departSpeed="0.00" departDelay="-0.57" arrival="120.00" arrivalLane="53i_0" arrivalPos="10.00" arrivalSpeed="18.01" duration="117.00" routeLength="596.93" waitingTime="70.00" waitingCount="1" stopTime="0.00" timeLoss="83.31" rerouteNo="0" devices="tripinfo_1" vType="DEFAULT_VEHTYPE" speedFactor="0.94" vaporized=""/>
    <tripinfo id="13" depart="46.00" departLane="51o_0" departPos="5.10" departSpeed="0.00" departDelay="-0.41" arrival="122.00" arrivalLane="53i_0" arrivalPos="10.00" arrivalSpeed="21.78" duration="76.00" routeLength="596.93" waitingTime="31.00" waitingCount="1" stopTime="0.00" timeLoss="46.80" rerouteNo="0" devices="tripinfo_13" vType="DEFAULT_VEHTYPE" speedFactor="1.12" vaporized=""/>
    <tripinfo id="9" depart="32.00" departLane="51o_0" departPos="5.10" departSpeed="0.00" departDelay="-0.13" arrival="124.00" arrivalLane="54i_0" arrivalPos="10.00" arrivalSpeed="16.41" duration="92.00" routeLength="617.75" waitingTime="40.00" waitingCount="1" stopTime="0.00" timeLoss="53.22" rerouteNo="0" devices="tripinfo_9" vType="DEFAULT_VEHTYPE" speedFactor="0.86" vaporized=""/>
    <tripinfo id="21" depart="74.00" departLane="51o_0" departPos="5.10" departSpeed="0.00" departDelay="-0.97" arrival="124.00" arrivalLane="53i_0" arrivalPos="10.00" arrivalSpeed="19.04" duration="50.00" routeLength="596.93" waitingTime="5.00" waitingCount="1" stopTime="0.00" timeLoss="18.63" rerouteNo="0" devices="tripinfo_21" vType="DEFAULT_VEHTYPE" speedFactor="1.01" vaporized=""/>
    <tripinfo id="23" depart="82.00" departLane="51o_0" departPos="5.10" departSpeed="0.00" departDelay="-0.11" arrival="129.00" arrivalLane="53i_0" arrivalPos="10.00" arrivalSpeed="16.11" duration="47.00" routeLength="596.93" waitingTime="0.00" waitingCount="0" stopTime="0.00" timeLoss="10.80" rerouteNo="0" devices="tripinfo_23" vType="DEFAULT_VEHTYPE" speedFactor="0.89" vaporized=""/>
    <tripinfo id="25" depart="89.00" departLane="51o_0" departPos="5.10" departSpeed="0.00" departDelay="-0.25" arrival="135.00" arrivalLane="54i_0" arrivalPos="10.00" arrivalSpeed="16.63" duration="46.00" routeLength="617.75" waitingTime="0.00" waitingCount="0" stopTime="0.00" timeLoss="8.03" rerouteNo="0" devices="tripinfo_25" vType="DEFAULT_VEHTYPE" speedFactor="0.87" vaporized=""/>
    <tripinfo id="26" depart="92.00" departLane="51o_0" departPos="5.10" departSpeed="0.00" departDelay="-0.82" arrival="136.00" arrivalLane="53i_0" arrivalPos="10.00" arrivalSpeed="16.88" duration="44.00" routeLength="596.93" waitingTime="0.00" waitingCount="0" stopTime="0.00" timeLoss="8.46" rerouteNo="0" devices="tripinfo_26" vType="DEFAULT_VEHTYPE" speedFactor="0.92" vaporized=""/>
    <tripinfo id="3" depart="10.00" departLane="54o_0" departPos="5.10" departSpeed="0.00" departDelay="-0.71" arrival="154.00" arrivalLane="53i_0" arrivalPos="10.00" arrivalSpeed="20.62" duration="144.00" routeLength="615.10" waitingTime="100.00" waitingCount="1" stopTime="0.00" timeLoss="114.03" rerouteNo="0" devices="tripinfo_3" vType="DEFAULT_VEHTYPE" speedFactor="1.08" vaporized=""/>
    <tripinfo id="4" depart="14.00" departLane="54o_0" departPos="5.10" departSpeed="0.00" departDelay="-0.28" arrival="155.00" arrivalLane="52i_0" arrivalPos="10.00" arrivalSpeed="19.19" duration="141.00" routeLength="617.75" waitingTime="96.00" waitingCount="1" stopTime="0.00" timeLoss="108.95" rerouteNo="0" devices="tripinfo_4" vType="DEFAULT_VEHTYPE" speedFactor="1.03" vaporized=""/>
    <tripinfo id="20" depart="71.00" departLane="54o_0" departPos="5.10" departSpeed="0.00" departDelay="-0.40" arrival="155.00" arrivalLane="53i_1" arrivalPos="10.00" arrivalSpeed="19.34" duration="84.00" routeLength="615.10" waitingTime="39.00" waitingCount="1" stopTime="0.00" timeLoss="52.14" rerouteNo="0" devices="tripinfo_20" vType="DEFAULT_VEHTYPE" speedFactor="1.02" vaporized=""/>
    <tripinfo id="28" depart="99.00" departLane="54o_0" departPos="5.10" departSpeed="0.00" departDelay="-0.96" arrival="155.00" arrivalLane="51i_0" arrivalPos="10.00" arrivalSpeed="21.55" duration="56.00" routeLength="596.93" waitingTime="13.00" waitingCount="1" stopTime="0.00" timeLoss="27.67" rerouteNo="0" devices="tripinfo_28" vType="DEFAULT_VEHTYPE" speedFactor="1.13" vaporized=""/>
    <tripinfo id="10" depart="35.00" departLane="54o_0" departPos="5.10" departSpeed="0.00" departDelay="-0.70" arrival="157.00" arrivalLane="52i_0" arrivalPos="10.00" arrivalSpeed="20.10" duration="122.00" routeLength="617.75" waitingTime="78.00" waitingCount="1" stopTime="0.00" timeLoss="91.12" rerouteNo="0" devices="tripinfo_10" vType="DEFAULT_VEHTYPE" speedFactor="1.09" vaporized=""/>
    <tripinfo id="33" depart="117.00" departLane="54o_0" departPos="5.10" departSpeed="0.00" departDelay="-0.81" arrival="157.00" arrivalLane="51i_0" arrivalPos="10.00" arrivalSpeed="21.89" duration="40.00" routeLength="596.93" waitingTime="0.00" waitingCount="0" stopTime="0.00" timeLoss="12.54" rerouteNo="0" devices="tripinfo_33" vType="DEFAULT_VEHTYPE" speedFactor="1.17" vaporized=""/>
    <tripinfo id="29" depart="103.00" departLane="54o_0" departPos="5.10" departSpeed="0.00" departDelay="-0.53" arrival="158.00" arrivalLane="53i_1" arrivalPos="10.00" arrivalSpeed="16.91" duration="55.00" routeLength="615.10" waitingTime="5.00" waitingCount="1" stopTime="0.00" timeLoss="20.40" rerouteNo="0" devices="tripinfo_29" vType="DEFAULT_VEHTYPE" speedFactor="0.93" vaporized=""/>
    <tripinfo id="42" depart="149.00" departLane="54o_0" departPos="5.10" departSpeed="0.00" departDelay="-0.94" arrival="188.00" arrivalLane="51i_0" arrivalPos="10.00" arrivalSpeed="20.22" duration="39.00" routeLength="596.93" waitingTime="0.00" waitingCount="0" stopTime="0.00" timeLoss="9.79" rerouteNo="0" devices="tripinfo_42" vType="DEFAULT_VEHTYPE" speedFactor="1.09" vaporized=""/>
    <tripinfo id="44" depart="157.00" departLane="54o_0" departPos="5.10" departSpeed="0.00" departDelay="-0.08" arrival="195.00" arrivalLane="53i_0" arrivalPos="10.00" arrivalSpeed="19.86" duration="38.00" routeLength="615.10" waitingTime="0.00" waitingCount="0" stopTime="0.00" timeLoss="6.93" rerouteNo="0" devices="tripinfo_44" vType="DEFAULT_VEHTYPE" speedFactor="1.04" vaporized=""/>
    <tripinfo id="11" depart="39.00" departLane="52o_0" departPos="5.10" departSpeed="0.00" departDelay="-0.27" arrival="205.00" arrivalLane="53i_0" arrivalPos="10.00" arrivalSpeed="19.30" duration="166.00" routeLength="617.75" waitingTime="122.00" waitingCount="1" stopTime="0.00" timeLoss="133.83" rerouteNo="0" devices="tripinfo_11" vType="DEFAULT_VEHTYPE" speedFactor="1.03" vaporized=""/>
    <tripinfo id="27" depart="96.00" departLane="52o_0" departPos="5.10" departSpeed="0.00" departDelay="-0.39" arrival="205.00" arrivalLane="51i_0" arrivalPos="10.00" arrivalSpeed="17.55" duration="109.00" routeLength="615.10" waitingTime="63.00" waitingCount="1" stopTime="0.00" timeLoss="75.42" rerouteNo="0" devices="tripinfo_27" vType="DEFAULT_VEHTYPE" speedFactor="0.95" vaporized=""/>
    <tripinfo id="30" depart="107.00" departLane="52o_0" departPos="5.10" departSpeed="0.00" departDelay="-0.10" arrival="205.00" arrivalLane="54i_0" arrivalPos="10.00" arrivalSpeed="22.14" duration="98.00" routeLength="596.93" waitingTime="55.00" waitingCount="1" stopTime="0.00" timeLoss="70.37" rerouteNo="0" devices="tripinfo_30" vType="DEFAULT_VEHTYPE" speedFactor="1.18" vaporized=""/>
    <tripinfo id="46" depart="164.00" departLane="52o_0" departPos="5.10" departSpeed="0.00" departDelay="-0.22" arrival="206.00" arrivalLane="51i_1" arrivalPos="10.00" arrivalSpeed="18.98" duration="42.00" routeLength="615.10" waitingTime="0.00" waitingCount="0" stopTime="0.00" timeLoss="9.87" rerouteNo="0" devices="tripinfo_46" vType="DEFAULT_VEHTYPE" speedFactor="1.00" vaporized=""/>
    <tripinfo id="14" depart="49.00" departLane="52o_0" departPos="5.10" departSpeed="0.00" departDelay="-0.98" arrival="207.00" arrivalLane="53i_0" arrivalPos="10.00" arrivalSpeed="18.59" duration="158.00" routeLength="617.75" waitingTime="113.00" waitingCount="1" stopTime="0.00" timeLoss="124.85" rerouteNo="0" devices="tripinfo_14" vType="DEFAULT_VEHTYPE" speedFactor="0.99" vaporized=""/>
    <tripinfo id="19" depart="67.00" departLane="52o_0" departPos="5.10" departSpeed="0.00" departDelay="-0.83" arrival="207.00" arrivalLane="51i_0" arrivalPos="10.00" arrivalSpeed="21.09" duration="140.00" routeLength="615.10" waitingTime="92.00" waitingCount="1" stopTime="0.00" timeLoss="112.08" rerouteNo="0" devices="tripinfo_19" vType="DEFAULT_VEHTYPE" speedFactor="1.16" vaporized=""/>
    <tripinfo id="36" depart="128.00" departLane="52o_0" departPos="5.10" departSpeed="0.00" departDelay="-0.52" arrival="210.00" arrivalLane="54i_0" arrivalPos="10.00" arrivalSpeed="18.81" duration="82.00" routeLength="596.93" waitingTime="35.00" waitingCount="1" stopTime="0.00" timeLoss="49.03" rerouteNo="0" devices="tripinfo_36" vType="DEFAULT_VEHTYPE" speedFactor="0.97" vaporized=""/>
    <tripinfo id="37" depart="132.00" departLane="52o_0" departPos="5.10" departSpeed="0.00" departDelay="-0.09" arrival="211.00" arrivalLane="54i_0" arrivalPos="10.00" arrivalSpeed="20.30" duration="79.00" routeLength="596.93" waitingTime="32.00" waitingCount="1" stopTime="0.00" timeLoss="51.71" rerouteNo="0" devices="tripinfo_37" vType="DEFAULT_VEHTYPE" speedFactor="1.18" vaporized=""/>
    <tripinfo id="16" depart="57.00" departLane="52o_0" departPos="5.10" departSpeed="0.00" departDelay="-0.12" arrival="213.00" arrivalLane="53i_0" arrivalPos="10.00" arrivalSpeed="17.00" duration="156.00" routeLength="617.75" waitingTime="104.00" waitingCount="1" stopTime="0.00" timeLoss="118.42" rerouteNo="0" devices="tripinfo_16" vType="DEFAULT_VEHTYPE" speedFactor="0.88" vaporized=""/>
    <tripinfo id="48" depart="171.00" departLane="52o_0" departPos="5.10" departSpeed="0.00" departDelay="-0.36" arrival="213.00" arrivalLane="51i_1" arrivalPos="10.00" arrivalSpeed="16.18" duration="42.00" routeLength="615.10" waitingTime="0.00" waitingCount="0" stopTime="0.00" timeLoss="5.13" rerouteNo="0" devices="tripinfo_48" vType="DEFAULT_VEHTYPE" speedFactor="0.88" vaporized=""/>
    <tripinfo id="40" depart="142.00" departLane="52o_0" departPos="5.10" departSpeed="0.00" departDelay="-0.80" arrival="214.00" arrivalLane="54i_0" arrivalPos="10.00" arrivalSpeed="18.86" duration="72.00" routeLength="596.93" waitingTime="24.00" waitingCount="1" stopTime="0.00" timeLoss="41.01" rerouteNo="0" devices="tripinfo_40" vType="DEFAULT_VEHTYPE" speedFactor="1.03" vaporized=""/>
    <tripinfo id="18" depart="64.00" departLane="52o_0" departPos="5.10" departSpeed="0.00" departDelay="-0.26" arrival="215.00" arrivalLane="53i_0" arrivalPos="10.00" arrivalSpeed="17.54" duration="151.00" routeLength="617.75" waitingTime="100.00" waitingCount="1" stopTime="0.00" timeLoss="115.19" rerouteNo="0" devices="tripinfo_18" vType="DEFAULT_VEHTYPE" speedFactor="0.94" vaporized=""/>
    <tripinfo id="22" depart="78.00" departLane="52o_0" departPos="5.10" departSpeed="0.00" departDelay="-0.54" arrival="216.00" arrivalLane="53i_0" arrivalPos="10.00" arrivalSpeed="18.94" duration="138.00" routeLength="617.75" waitingTime="87.00" waitingCount="1" stopTime="0.00" timeLoss="104.22" rerouteNo="0" devices="tripinfo_22" vType="DEFAULT_VEHTYPE" speedFactor="0.98" vaporized=""/>
    <tripinfo id="43" depart="153.00" departLane="52o_0" departPos="5.10" departSpeed="0.00" departDelay="-0.51" arrival="216.00" arrivalLane="54i_0" arrivalPos="10.00" arrivalSpeed="19.73" duration="63.00" routeLength="596.93" waitingTime="14.00" waitingCount="1" stopTime="0.00" timeLoss="31.78" rerouteNo="0" devices="tripinfo_43" vType="DEFAULT_VEHTYPE" speedFactor="1.04" vaporized=""/>
    <tripinfo id="49" depart="174.00" departLane="52o_0" departPos="5.10" departSpeed="0.00" departDelay="-0.93" arrival="217.00" arrivalLane="51i_1" arrivalPos="10.00" arrivalSpeed="15.27" duration="43.00" routeLength="615.10" waitingTime="0.00" waitingCount="0" stopTime="0.00" timeLoss="5.55" rerouteNo="0" devices="tripinfo_49" vType="DEFAULT_VEHTYPE" speedFactor="0.85" vaporized=""/>
    <tripinfo id="38" depart="135.00" departLane="52o_0" departPos="5.10" departSpeed="0.00" departDelay="-0.66" arrival="218.00" arrivalLane="53i_0" arrivalPos="10.00" arrivalSpeed="21.08" duration="83.00" routeLength="617.75" waitingTime="32.00" waitingCount="1" stopTime="0.00" timeLoss="52.49" rerouteNo="0" devices="tripinfo_38" vType="DEFAULT_VEHTYPE" speedFactor="1.10" vaporized=""/>
    <tripinfo id="53" depart="189.00" departLane="52o_0" departPos="5.10" departSpeed="0.00" departDelay="-0.21" arrival="228.00" arrivalLane="53i_0" arrivalPos="10.00" arrivalSpeed="21.06" duration="39.00" routeLength="617.75" waitingTime="0.00" waitingCount="0" stopTime="0.00" timeLoss="8.72" rerouteNo="0" devices="tripinfo_53" vType="DEFAULT_VEHTYPE" speedFactor="1.10" vaporized=""/>
    <tripinfo id="54" depart="192.00" departLane="52o_0" departPos="5.10" departSpeed="0.00" departDelay="-0.78" arrival="234.00" arrivalLane="53i_0" arrivalPos="10.00" arrivalSpeed="18.63" duration="42.00" routeLength="617.75" waitingTime="0.00" waitingCount="0" stopTime="0.00" timeLoss="8.27" rerouteNo="0" devices="tripinfo_54" vType="DEFAULT_VEHTYPE" speedFactor="1.00" vaporized=""/>
    <tripinfo id="62" depart="221.00" departLane="52o_0" departPos="5.10" departSpeed="0.00" departDelay="-0.34" arrival="261.00" arrivalLane="54i_0" arrivalPos="10.00" arrivalSpeed="19.33" duration="40.00" routeLength="596.93" waitingTime="0.00" waitingCount="0" stopTime="0.00" timeLoss="8.54" rerouteNo="0" devices="tripinfo_62" vType="DEFAULT_VEHTYPE" speedFactor="1.02" vaporized=""/>
    <tripinfo id="32" depart="114.00" departLane="53o_0" departPos="5.10" departSpeed="0.00" departDelay="-0.24" arrival="279.00" arrivalLane="54i_0" arrivalPos="10.00" arrivalSpeed="18.76" duration="165.00" routeLength="615.10" waitingTime="120.00" waitingCount="1" stopTime="0.00" timeLoss="132.63" rerouteNo="0" devices="tripinfo_32" vType="DEFAULT_VEHTYPE" speedFactor="1.01" vaporized=""/>
    <tripinfo id="31" depart="110.00" departLane="53o_0" departPos="5.10" departSpeed="0.00" departDelay="-0.67" arrival="280.00" arrivalLane="52i_0" arrivalPos="10.00" arrivalSpeed="21.90" duration="170.00" routeLength="596.93" waitingTime="127.00" waitingCount="1" stopTime="0.00" timeLoss="141.35" rerouteNo="0" devices="tripinfo_31" vType="DEFAULT_VEHTYPE" speedFactor="1.15" vaporized=""/>
    <tripinfo id="34" depart="121.00" departLane="53o_0" departPos="5.10" departSpeed="0.00" departDelay="-0.38" arrival="280.00" arrivalLane="54i_2" arrivalPos="10.00" arrivalSpeed="18.87" duration="159.00" routeLength="615.10" waitingTime="112.00" waitingCount="1" stopTime="0.00" timeLoss="126.33" rerouteNo="0" devices="tripinfo_34" vType="DEFAULT_VEHTYPE" speedFactor="0.99" vaporized=""/>
    <tripinfo id="35" depart="124.00" departLane="53o_0" departPos="5.10" departSpeed="0.00" departDelay="-0.95" arrival="281.00" arrivalLane="54i_1" arrivalPos="10.00" arrivalSpeed="19.11" duration="157.00" routeLength="615.10" waitingTime="111.00" waitingCount="1" stopTime="0.00" timeLoss="125.29" rerouteNo="0" devices="tripinfo_35" vType="DEFAULT_VEHTYPE" speedFactor="1.02" vaporized=""/>
    <tripinfo id="24" depart="85.00" departLane="53o_0" departPos="5.10" departSpeed="0.00" departDelay="-0.68" arrival="282.00" arrivalLane="54i_0" arrivalPos="10.00" arrivalSpeed="15.15" duration="197.00" routeLength="615.10" waitingTime="148.00" waitingCount="1" stopTime="0.00" timeLoss="158.41" rerouteNo="0" devices="tripinfo_24" vType="DEFAULT_VEHTYPE" speedFactor="0.83" vaporized=""/>
    <tripinfo id="52" depart="185.00" departLane="53o_0" departPos="5.10" departSpeed="0.00" departDelay="-0.64" arrival="283.00" arrivalLane="51i_0" arrivalPos="10.00" arrivalSpeed="19.01" duration="98.00" routeLength="617.75" waitingTime="50.00" waitingCount="1" stopTime="0.00" timeLoss="65.48" rerouteNo="0" devices="tripinfo_52" vType="DEFAULT_VEHTYPE" speedFactor="1.02" vaporized=""/>
    <tripinfo id="39" depart="139.00" departLane="53o_0" departPos="5.10" departSpeed="0.00" departDelay="-0.23" arrival="286.00" arrivalLane="52i_0" arrivalPos="10.00" arrivalSpeed="16.73" duration="147.00" routeLength="596.93" waitingTime="97.00" waitingCount="1" stopTime="0.00" timeLoss="110.96" rerouteNo="0" devices="tripinfo_39" vType="DEFAULT_VEHTYPE" speedFactor="0.90" vaporized=""/>
    <tripinfo id="55" depart="196.00" departLane="53o_0" departPos="5.10" departSpeed="0.00" departDelay="-0.35" arrival="286.00" arrivalLane="51i_0" arrivalPos="10.00" arrivalSpeed="18.18" duration="90.00" routeLength="617.75" waitingTime="41.00" waitingCount="1" stopTime="0.00" timeLoss="56.37" rerouteNo="0" devices="tripinfo_55" vType="DEFAULT_VEHTYPE" speedFactor="1.00" vaporized=""/>
    <tripinfo id="51" depart="182.00" departLane="53o_0" departPos="5.10" departSpeed="0.00" departDelay="-0.07" arrival="287.00" arrivalLane="52i_0" arrivalPos="10.00" arrivalSpeed="17.79" duration="105.00" routeLength="596.93" waitingTime="58.00" waitingCount="1" stopTime="0.00" timeLoss="77.67" rerouteNo="0" devices="tripinfo_51" vType="DEFAULT_VEHTYPE" speedFactor="1.17" vaporized=""/>
    <tripinfo id="60" depart="214.00" departLane="53o_0" departPos="5.10" departSpeed="0.00" departDelay="-0.20" arrival="287.00" arrivalLane="51i_0" arrivalPos="10.00" arrivalSpeed="20.79" duration="73.00" routeLength="617.75" waitingTime="24.00" waitingCount="1" stopTime="0.00" timeLoss="42.59" rerouteNo="0" devices="tripinfo_60" vType="DEFAULT_VEHTYPE" speedFactor="1.08" vaporized=""/>
    <tripinfo id="61" depart="217.00" departLane="53o_0" departPos="5.10" departSpeed="0.00" departDelay="-0.77" arrival="289.00" arrivalLane="52i_0" arrivalPos="10.00" arrivalSpeed="18.79" duration="72.00" routeLength="596.93" waitingTime="22.00" waitingCount="1" stopTime="0.00" timeLoss="43.51" rerouteNo="0" devices="tripinfo_61" vType="DEFAULT_VEHTYPE" speedFactor="1.12" vaporized=""/>
    <tripinfo id="69" depart="246.00" departLane="53o_0" departPos="5.10" departSpeed="0.00" departDelay="-0.33" arrival="291.00" arrivalLane="52i_0" arrivalPos="10.00" arrivalSpeed="18.79" duration="45.00" routeLength="596.93" waitingTime="0.00" waitingCount="0" stopTime="0.00" timeLoss="13.62" rerouteNo="0" devices="tripinfo_69" vType="DEFAULT_VEHTYPE" speedFactor="1.02" vaporized=""/>
    <tripinfo id="71" depart="253.00" departLane="53o_0" departPos="5.10" departSpeed="0.00" departDelay="-0.47" arrival="295.00" arrivalLane="51i_0" arrivalPos="10.00" arrivalSpeed="17.80" duration="42.00" routeLength="617.75" waitingTime="0.00" waitingCount="0" stopTime="0.00" timeLoss="7.90" rerouteNo="0" devices="tripinfo_71" vType="DEFAULT_VEHTYPE" speedFactor="0.97" vaporized=""/>
    <tripinfo id="82" depart="292.00" departLane="53o_0" departPos="5.10" departSpeed="0.00" departDelay="-0.74" arrival="333.00" arrivalLane="52i_0" arrivalPos="10.00" arrivalSpeed="19.15" duration="41.00" routeLength="596.93" waitingTime="0.00" waitingCount="0" stopTime="0.00" timeLoss="9.61" rerouteNo="0" devices="tripinfo_82" vType="DEFAULT_VEHTYPE" speedFactor="1.02" vaporized=""/>
    <tripinfo id="45" depart="160.00" departLane="51o_0" departPos="5.10" departSpeed="0.00" departDelay="-0.65" arrival="361.00" arrivalLane="52i_1" arrivalPos="10.00" arrivalSpeed="20.91" duration="201.00" routeLength="615.10" waitingTime="157.00" waitingCount="1" stopTime="0.00" timeLoss="171.51" rerouteNo="0" devices="tripinfo_45" vType="DEFAULT_VEHTYPE" speedFactor="1.09" vaporized=""/>
    <tripinfo id="41" depart="146.00" departLane="51o_0" departPos="5.10" departSpeed="0.00" departDelay="-0.37" arrival="362.00" arrivalLane="53i_0" arrivalPos="10.00" arrivalSpeed="18.12" duration="216.00" routeLength="596.93" waitingTime="169.00" waitingCount="1" stopTime="0.00" timeLoss="182.57" rerouteNo="0" devices="tripinfo_41" vType="DEFAULT_VEHTYPE" speedFactor="0.96" vaporized=""/>
    <tripinfo id="57" depart="203.00" departLane="51o_0" departPos="5.10" departSpeed="0.00" departDelay="-0.49" arrival="363.00" arrivalLane="53i_0" arrivalPos="10.00" arrivalSpeed="20.76" duration="160.00" routeLength="596.93" waitingTime="117.00" waitingCount="1" stopTime="0.00" timeLoss="131.93" rerouteNo="0" devices="tripinfo_57" vType="DEFAULT_VEHTYPE" speedFactor="1.14" vaporized=""/>
    <tripinfo id="63" depart="224.00" departLane="51o_0" departPos="5.10" departSpeed="0.00" departDelay="-0.91" arrival="363.00" arrivalLane="54i_0" arrivalPos="10.00" arrivalSpeed="18.91" duration="139.00" routeLength="617.75" waitingTime="93.00" waitingCount="1" stopTime="0.00" timeLoss="105.39" rerouteNo="0" devices="tripinfo_63" vType="DEFAULT_VEHTYPE" speedFactor="0.99" vaporized=""/>
    <tripinfo id="66" depart="235.00" departLane="51o_0" departPos="5.10" departSpeed="0.00" departDelay="-0.62" arrival="365.00" arrivalLane="52i_1" arrivalPos="10.00" arrivalSpeed="17.58" duration="130.00" routeLength="615.10" waitingTime="78.00" waitingCount="1" stopTime="0.00" timeLoss="94.58" rerouteNo="0" devices="tripinfo_66" vType="DEFAULT_VEHTYPE" speedFactor="0.91" vaporized=""/>
    <tripinfo id="76" depart="271.00" departLane="51o_0" departPos="5.10" departSpeed="0.00" departDelay="-0.32" arrival="366.00" arrivalLane="52i_2" arrivalPos="10.00" arrivalSpeed="19.26" duration="95.00" routeLength="615.10" waitingTime="49.00" waitingCount="1" stopTime="0.00" timeLoss="63.58" rerouteNo="0" devices="tripinfo_76" vType="DEFAULT_VEHTYPE" speedFactor="1.03" vaporized=""/>
    <tripinfo id="85" depart="303.00" departLane="51o_0" departPos="5.10" departSpeed="0.00" departDelay="-0.45" arrival="366.00" arrivalLane="52i_1" arrivalPos="10.00" arrivalSpeed="18.09" duration="63.00" routeLength="615.10" waitingTime="12.00" waitingCount="1" stopTime="0.00" timeLoss="30.52" rerouteNo="0" devices="tripinfo_85" vType="DEFAULT_VEHTYPE" speedFactor="0.98" vaporized=""/>
    <tripinfo id="65" depart="232.00" departLane="51o_0" departPos="5.10" departSpeed="0.00" departDelay="-0.05" arrival="367.00" arrivalLane="54i_0" arrivalPos="10.00" arrivalSpeed="16.83" duration="135.00" routeLength="617.75" waitingTime="85.00" waitingCount="1" stopTime="0.00" timeLoss="97.41" rerouteNo="0" devices="tripinfo_65" vType="DEFAULT_VEHTYPE" speedFactor="0.88" vaporized=""/>
    <tripinfo id="59" depart="210.00" departLane="51o_0" departPos="5.10" departSpeed="0.00" departDelay="-0.63" arrival="368.00" arrivalLane="53i_0" arrivalPos="10.00" arrivalSpeed="17.67" duration="158.00" routeLength="596.93" waitingTime="109.00" waitingCount="1" stopTime="0.00" timeLoss="124.48" rerouteNo="0" devices="tripinfo_59" vType="DEFAULT_VEHTYPE" speedFactor="0.97" vaporized=""/>
    <tripinfo id="64" depart="228.00" departLane="51o_0" departPos="5.10" departSpeed="0.00" departDelay="-0.48" arrival="370.00" arrivalLane="53i_0" arrivalPos="10.00" arrivalSpeed="17.98" duration="142.00" routeLength="596.93" waitingTime="92.00" waitingCount="1" stopTime="0.00" timeLoss="108.23" rerouteNo="0" devices="tripinfo_64" vType="DEFAULT_VEHTYPE" speedFactor="0.94" vaporized=""/>
    <tripinfo id="81" depart="289.00" departLane="51o_0" departPos="5.10" departSpeed="0.00" departDelay="-0.17" arrival="370.00" arrivalLane="54i_0" arrivalPos="10.00" arrivalSpeed="18.58" duration="81.00" routeLength="617.75" waitingTime="32.00" waitingCount="1" stopTime="0.00" timeLoss="47.59" rerouteNo="0" devices="tripinfo_81" vType="DEFAULT_VEHTYPE" speedFactor="1.00" vaporized=""/>
    <tripinfo id="91" depart="324.00" departLane="51o_0" departPos="5.10" departSpeed="0.00" departDelay="-0.87" arrival="371.00" arrivalLane="52i_1" arrivalPos="10.00" arrivalSpeed="17.26" duration="47.00" routeLength="615.10" waitingTime="1.00" waitingCount="1" stopTime="0.00" timeLoss="10.74" rerouteNo="0" devices="tripinfo_91" vType="DEFAULT_VEHTYPE" speedFactor="0.89" vaporized=""/>
    <tripinfo id="83" depart="296.00" departLane="51o_0" departPos="5.10" departSpeed="0.00" departDelay="-0.31" arrival="372.00" arrivalLane="54i_0" arrivalPos="10.00" arrivalSpeed="17.82" duration="76.00" routeLength="617.75" waitingTime="25.00" waitingCount="1" stopTime="0.00" timeLoss="41.81" rerouteNo="0" devices="tripinfo_83" vType="DEFAULT_VEHTYPE" speedFactor="0.97" vaporized=""/>
    <tripinfo id="67" depart="239.00" departLane="51o_0" departPos="5.10" departSpeed="0.00" departDelay="-0.19" arrival="373.00" arrivalLane="3o_0" arrivalPos="286.40" arrivalSpeed="16.67" duration="134.00" routeLength="586.83" waitingTime="83.00" waitingCount="1" stopTime="0.00" timeLoss="99.41" rerouteNo="0" devices="tripinfo_67" vType="DEFAULT_VEHTYPE" speedFactor="0.91" vaporized=""/>
    <tripinfo id="72" depart="257.00" departLane="51o_0" departPos="5.10" departSpeed="0.00" departDelay="-0.04" arrival="375.00" arrivalLane="53i_0" arrivalPos="10.00" arrivalSpeed="18.27" duration="118.00" routeLength="596.93" waitingTime="66.00" waitingCount="1" stopTime="0.00" timeLoss="84.45" rerouteNo="0" devices="tripinfo_72" vType="DEFAULT_VEHTYPE" speedFactor="0.94" vaporized=""/>
    <tripinfo id="92" depart="328.00" departLane="51o_0" departPos="5.10" departSpeed="0.00" departDelay="-0.44" arrival="380.00" arrivalLane="53i_0" arrivalPos="10.00" arrivalSpeed="15.76" duration="52.00" routeLength="596.93" waitingTime="0.00" waitingCount="0" stopTime="0.00" timeLoss="13.77" rerouteNo="0" devices="tripinfo_92" vType="DEFAULT_VEHTYPE" speedFactor="0.83" vaporized=""/>