<?xml version="1.0" encoding="UTF-8"?>

<!-- generated on Fri Nov  8 01:17:07 2019 by Eclipse SUMO Version 1.2.0
<configuration xmlns:xsi="http://www.w3.org/2001/XMLSchema-instance" xsi:noNamespaceSchemaLocation="http://sumo.dlr.de/xsd/sumoConfiguration.xsd">

    <input>
        <net-file value="simulation_files/sumocfgs/../networks/isolated_3_lanes_4_stages.net.xml"/>
        <route-files value="simulation_files/sumocfgs/../routes/isolated_3_lanes_20p.rou.xml"/>
    </input>

    <output>
        <tripinfo-output value="./output/exp21_rf_20p/throughput__8_tripinfo_isolated.xml"/>
    </output>

    <time>
        <begin value="0"/>
        <step-length value="1"/>
    </time>

    <report>
        <verbose value="true"/>
        <no-step-log value="true"/>
    </report>

    <gui_only>
        <tracker-interval value="1"/>
    </gui_only>

</configuration>
-->

<tripinfos xmlns:xsi="http://www.w3.org/2001/XMLSchema-instance" xsi:noNamespaceSchemaLocation="http://sumo.dlr.de/xsd/tripinfo_file.xsd">
    <tripinfo id="2" depart="7.00" departLane="52o_0" departPos="5.10" departSpeed="0.00" departDelay="-0.14" arrival="48.00" arrivalLane="54i_0" arrivalPos="10.00" arrivalSpeed="19.14" duration="41.00" routeLength="596.93" waitingTime="0.00" waitingCount="0" stopTime="0.00" timeLoss="9.18" rerouteNo="0" devices="tripinfo_2" vType="DEFAULT_VEHTYPE" speedFactor="1.01" vaporized=""/>
    <tripinfo id="0" depart="0.00" departLane="53o_0" departPos="5.10" departSpeed="0.00" departDelay="0.00" arrival="59.00" arrivalLane="52i_0" arrivalPos="10.00" arrivalSpeed="19.76" duration="59.00" routeLength="596.93" waitingTime="17.00" waitingCount="1" stopTime="0.00" timeLoss="29.02" rerouteNo="0" devices="tripinfo_0" vType="DEFAULT_VEHTYPE" speedFactor="1.06" vaporized=""/>
    <tripinfo id="12" depart="42.00" departLane="53o_0" departPos="5.10" departSpeed="0.00" departDelay="-0.84" arrival="78.00" arrivalLane="54i_0" arrivalPos="10.00" arrivalSpeed="19.37" duration="36.00" routeLength="615.10" waitingTime="0.00" waitingCount="0" stopTime="0.00" timeLoss="5.12" rerouteNo="0" devices="tripinfo_12" vType="DEFAULT_VEHTYPE" speedFactor="1.05" vaporized=""/>
    <tripinfo id="15" depart="53.00" departLane="53o_0" departPos="5.10" departSpeed="0.00" departDelay="-0.55" arrival="93.00" arrivalLane="54i_0" arrivalPos="10.00" arrivalSpeed="17.77" duration="40.00" routeLength="615.10" waitingTime="0.00" waitingCount="0" stopTime="0.00" timeLoss="5.14" rerouteNo="0" devices="tripinfo_15" vType="DEFAULT_VEHTYPE" speedFactor="0.93" vaporized=""/>
    <tripinfo id="17" depart="60.00" departLane="53o_0" departPos="5.10" departSpeed="0.00" departDelay="-0.69" arrival="103.00" arrivalLane="52i_0" arrivalPos="10.00" arrivalSpeed="17.08" duration="43.00" routeLength="596.93" waitingTime="0.00" waitingCount="0" stopTime="0.00" timeLoss="9.42" rerouteNo="0" devices="tripinfo_17" vType="DEFAULT_VEHTYPE" speedFactor="0.94" vaporized=""/>
    <tripinfo id="24" depart="85.00" departLane="53o_0" departPos="5.10" departSpeed="0.00" departDelay="-0.68" arrival="129.00" arrivalLane="54i_0" arrivalPos="10.00" arrivalSpeed="14.98" duration="44.00" routeLength="615.10" waitingTime="0.00" waitingCount="0" stopTime="0.00" timeLoss="5.42" rerouteNo="0" devices="tripinfo_24" vType="DEFAULT_VEHTYPE" speedFactor="0.83" vaporized=""/>
    <tripinfo id="31" depart="110.00" departLane="53o_0" departPos="5.10" departSpeed="0.00" departDelay="-0.67" arrival="147.00" arrivalLane="52i_0" arrivalPos="10.00" arrivalSpeed="21.31" duration="37.00" routeLength="596.93" waitingTime="0.00" waitingCount="0" stopTime="0.00" timeLoss="9.61" rerouteNo="0" devices="tripinfo_31" vType="DEFAULT_VEHTYPE" speedFactor="1.15" vaporized=""/>
    <tripinfo id="32" depart="114.00" departLane="53o_0" departPos="5.10" departSpeed="0.00" departDelay="-0.24" arrival="152.00" arrivalLane="54i_0" arrivalPos="10.00" arrivalSpeed="19.20" duration="38.00" routeLength="615.10" waitingTime="0.00" waitingCount="0" stopTime="0.00" timeLoss="5.65" rerouteNo="0" devices="tripinfo_32" vType="DEFAULT_VEHTYPE" speedFactor="1.01" vaporized=""/>
    <tripinfo id="1" depart="3.00" departLane="51o_0" departPos="5.10" departSpeed="0.00" departDelay="-0.57" arrival="165.00" arrivalLane="53i_0" arrivalPos="10.00" arrivalSpeed="17.63" duration="162.00" routeLength="596.93" waitingTime="115.00" waitingCount="1" stopTime="0.00" timeLoss="128.30" rerouteNo="0" devices="tripinfo_1" vType="DEFAULT_VEHTYPE" speedFactor="0.94" vaporized=""/>
    <tripinfo id="13" depart="46.00" departLane="51o_0" departPos="5.10" departSpeed="0.00" departDelay="-0.41" arrival="167.00" arrivalLane="53i_0" arrivalPos="10.00" arrivalSpeed="21.08" duration="121.00" routeLength="596.93" waitingTime="76.00" waitingCount="1" stopTime="0.00" timeLoss="92.26" rerouteNo="0" devices="tripinfo_13" vType="DEFAULT_VEHTYPE" speedFactor="1.12" vaporized=""/>
    <tripinfo id="9" depart="32.00" departLane="51o_0" departPos="5.10" departSpeed="0.00" departDelay="-0.13" arrival="168.00" arrivalLane="54i_0" arrivalPos="10.00" arrivalSpeed="15.89" duration="136.00" routeLength="617.75" waitingTime="85.00" waitingCount="1" stopTime="0.00" timeLoss="97.62" rerouteNo="0" devices="tripinfo_9" vType="DEFAULT_VEHTYPE" speedFactor="0.86" vaporized=""/>
    <tripinfo id="21" depart="74.00" departLane="51o_0" departPos="5.10" departSpeed="0.00" departDelay="-0.97" arrival="170.00" arrivalLane="53i_0" arrivalPos="10.00" arrivalSpeed="19.59" duration="96.00" routeLength="596.93" waitingTime="50.00" waitingCount="1" stopTime="0.00" timeLoss="63.56" rerouteNo="0" devices="tripinfo_21" vType="DEFAULT_VEHTYPE" speedFactor="1.01" vaporized=""/>
    <tripinfo id="25" depart="89.00" departLane="51o_0" departPos="5.10" departSpeed="0.00" departDelay="-0.25" arrival="171.00" arrivalLane="54i_0" arrivalPos="10.00" arrivalSpeed="16.19" duration="82.00" routeLength="617.75" waitingTime="31.00" waitingCount="1" stopTime="0.00" timeLoss="43.90" rerouteNo="0" devices="tripinfo_25" vType="DEFAULT_VEHTYPE" speedFactor="0.87" vaporized=""/>
    <tripinfo id="23" depart="82.00" departLane="51o_0" departPos="5.10" departSpeed="0.00" departDelay="-0.11" arrival="175.00" arrivalLane="53i_0" arrivalPos="10.00" arrivalSpeed="16.11" duration="93.00" routeLength="596.93" waitingTime="40.00" waitingCount="1" stopTime="0.00" timeLoss="56.83" rerouteNo="0" devices="tripinfo_23" vType="DEFAULT_VEHTYPE" speedFactor="0.89" vaporized=""/>
    <tripinfo id="26" depart="92.00" departLane="51o_0" departPos="5.10" departSpeed="0.00" departDelay="-0.82" arrival="177.00" arrivalLane="53i_0" arrivalPos="10.00" arrivalSpeed="16.88" duration="85.00" routeLength="596.93" waitingTime="31.00" waitingCount="1" stopTime="0.00" timeLoss="49.94" rerouteNo="0" devices="tripinfo_26" vType="DEFAULT_VEHTYPE" speedFactor="0.92" vaporized=""/>
    <tripinfo id="41" depart="146.00" departLane="51o_0" departPos="5.10" departSpeed="0.00" departDelay="-0.37" arrival="188.00" arrivalLane="53i_0" arrivalPos="10.00" arrivalSpeed="18.18" duration="42.00" routeLength="596.93" waitingTime="0.00" waitingCount="0" stopTime="0.00" timeLoss="8.47" rerouteNo="0" devices="tripinfo_41" vType="DEFAULT_VEHTYPE" speedFactor="0.96" vaporized=""/>
    <tripinfo id="45" depart="160.00" departLane="51o_0" departPos="5.10" departSpeed="0.00" departDelay="-0.65" arrival="196.00" arrivalLane="52i_0" arrivalPos="10.00" arrivalSpeed="20.64" duration="36.00" routeLength="615.10" waitingTime="0.00" waitingCount="0" stopTime="0.00" timeLoss="6.45" rerouteNo="0" devices="tripinfo_45" vType="DEFAULT_VEHTYPE" speedFactor="1.09" vaporized=""/>
    <tripinfo id="3" depart="10.00" departLane="54o_0" departPos="5.10" departSpeed="0.00" departDelay="-0.71" arrival="235.00" arrivalLane="53i_0" arrivalPos="10.00" arrivalSpeed="20.62" duration="225.00" routeLength="615.10" waitingTime="181.00" waitingCount="1" stopTime="0.00" timeLoss="194.95" rerouteNo="0" devices="tripinfo_3" vType="DEFAULT_VEHTYPE" speedFactor="1.08" vaporized=""/>
    <tripinfo id="4" depart="14.00" departLane="54o_0" departPos="5.10" departSpeed="0.00" departDelay="-0.28" arrival="236.00" arrivalLane="52i_0" arrivalPos="10.00" arrivalSpeed="18.91" duration="222.00" routeLength="617.75" waitingTime="177.00" waitingCount="1" stopTime="0.00" timeLoss="189.87" rerouteNo="0" devices="tripinfo_4" vType="DEFAULT_VEHTYPE" speedFactor="1.03" vaporized=""/>
    <tripinfo id="20" depart="71.00" departLane="54o_0" departPos="5.10" departSpeed="0.00" departDelay="-0.40" arrival="236.00" arrivalLane="53i_1" arrivalPos="10.00" arrivalSpeed="19.34" duration="165.00" routeLength="615.10" waitingTime="120.00" waitingCount="1" stopTime="0.00" timeLoss="133.22" rerouteNo="0" devices="tripinfo_20" vType="DEFAULT_VEHTYPE" speedFactor="1.02" vaporized=""/>
    <tripinfo id="28" depart="99.00" departLane="54o_0" departPos="5.10" departSpeed="0.00" departDelay="-0.96" arrival="236.00" arrivalLane="51i_0" arrivalPos="10.00" arrivalSpeed="21.14" duration="137.00" routeLength="596.93" waitingTime="94.00" waitingCount="1" stopTime="0.00" timeLoss="108.80" rerouteNo="0" devices="tripinfo_28" vType="DEFAULT_VEHTYPE" speedFactor="1.13" vaporized=""/>
    <tripinfo id="10" depart="35.00" departLane="54o_0" departPos="5.10" departSpeed="0.00" departDelay="-0.70" arrival="238.00" arrivalLane="52i_0" arrivalPos="10.00" arrivalSpeed="20.10" duration="203.00" routeLength="617.75" waitingTime="159.00" waitingCount="1" stopTime="0.00" timeLoss="172.09" rerouteNo="0" devices="tripinfo_10" vType="DEFAULT_VEHTYPE" speedFactor="1.09" vaporized=""/>
    <tripinfo id="33" depart="117.00" departLane="54o_0" departPos="5.10" departSpeed="0.00" departDelay="-0.81" arrival="238.00" arrivalLane="51i_0" arrivalPos="10.00" arrivalSpeed="22.57" duration="121.00" routeLength="596.93" waitingTime="79.00" waitingCount="1" stopTime="0.00" timeLoss="93.79" rerouteNo="0" devices="tripinfo_33" vType="DEFAULT_VEHTYPE" speedFactor="1.17" vaporized=""/>
    <tripinfo id="29" depart="103.00" departLane="54o_0" departPos="5.10" departSpeed="0.00" departDelay="-0.53" arrival="239.00" arrivalLane="53i_1" arrivalPos="10.00" arrivalSpeed="18.00" duration="136.00" routeLength="615.10" waitingTime="86.00" waitingCount="1" stopTime="0.00" timeLoss="101.89" rerouteNo="0" devices="tripinfo_29" vType="DEFAULT_VEHTYPE" speedFactor="0.93" vaporized=""/>
    <tripinfo id="44" depart="157.00" departLane="54o_0" departPos="5.10" departSpeed="0.00" departDelay="-0.08" arrival="240.00" arrivalLane="53i_2" arrivalPos="10.00" arrivalSpeed="20.05" duration="83.00" routeLength="615.10" waitingTime="37.00" waitingCount="1" stopTime="0.00" timeLoss="51.71" rerouteNo="0" devices="tripinfo_44" vType="DEFAULT_VEHTYPE" speedFactor="1.04" vaporized=""/>
    <tripinfo id="42" depart="149.00" departLane="54o_0" departPos="5.10" departSpeed="0.00" departDelay="-0.94" arrival="241.00" arrivalLane="51i_0" arrivalPos="10.00" arrivalSpeed="20.34" duration="92.00" routeLength="596.93" waitingTime="47.00" waitingCount="1" stopTime="0.00" timeLoss="62.69" rerouteNo="0" devices="tripinfo_42" vType="DEFAULT_VEHTYPE" speedFactor="1.09" vaporized=""/>
    <tripinfo id="47" depart="167.00" departLane="54o_0" departPos="5.10" departSpeed="0.00" departDelay="-0.79" arrival="245.00" arrivalLane="52i_0" arrivalPos="10.00" arrivalSpeed="16.63" duration="78.00" routeLength="617.75" waitingTime="26.00" waitingCount="1" stopTime="0.00" timeLoss="41.44" rerouteNo="0" devices="tripinfo_47" vType="DEFAULT_VEHTYPE" speedFactor="0.90" vaporized=""/>
    <tripinfo id="58" depart="207.00" departLane="54o_0" departPos="5.10" departSpeed="0.00" departDelay="-0.06" arrival="246.00" arrivalLane="53i_2" arrivalPos="10.00" arrivalSpeed="18.66" duration="39.00" routeLength="615.10" waitingTime="0.00" waitingCount="0" stopTime="0.00" timeLoss="7.50" rerouteNo="0" devices="tripinfo_58" vType="DEFAULT_VEHTYPE" speedFactor="1.02" vaporized=""/>
    <tripinfo id="56" depart="199.00" departLane="54o_0" departPos="5.10" departSpeed="0.00" departDelay="-0.92" arrival="247.00" arrivalLane="53i_1" arrivalPos="10.00" arrivalSpeed="16.28" duration="48.00" routeLength="615.10" waitingTime="0.00" waitingCount="0" stopTime="0.00" timeLoss="12.29" rerouteNo="0" devices="tripinfo_56" vType="DEFAULT_VEHTYPE" speedFactor="0.90" vaporized=""/>
    <tripinfo id="50" depart="178.00" departLane="54o_0" departPos="5.10" departSpeed="0.00" departDelay="-0.50" arrival="249.00" arrivalLane="52i_0" arrivalPos="10.00" arrivalSpeed="16.07" duration="71.00" routeLength="617.75" waitingTime="18.00" waitingCount="1" stopTime="0.00" timeLoss="31.59" rerouteNo="0" devices="tripinfo_50" vType="DEFAULT_VEHTYPE" speedFactor="0.85" vaporized=""/>
    <tripinfo id="68" depart="242.00" departLane="54o_0" departPos="5.10" departSpeed="0.00" departDelay="-0.76" arrival="282.00" arrivalLane="52i_0" arrivalPos="10.00" arrivalSpeed="19.44" duration="40.00" routeLength="617.75" waitingTime="0.00" waitingCount="0" stopTime="0.00" timeLoss="7.42" rerouteNo="0" devices="tripinfo_68" vType="DEFAULT_VEHTYPE" speedFactor="1.04" vaporized=""/>
    <tripinfo id="6" depart="21.00" departLane="52o_0" departPos="5.10" departSpeed="0.00" departDelay="-0.42" arrival="304.00" arrivalLane="51i_0" arrivalPos="10.00" arrivalSpeed="19.29" duration="283.00" routeLength="615.10" waitingTime="239.00" waitingCount="1" stopTime="0.00" timeLoss="252.40" rerouteNo="0" devices="tripinfo_6" vType="DEFAULT_VEHTYPE" speedFactor="1.05" vaporized=""/>
    <tripinfo id="7" depart="24.00" departLane="52o_0" departPos="5.10" departSpeed="0.00" departDelay="-0.99" arrival="306.00" arrivalLane="51i_1" arrivalPos="10.00" arrivalSpeed="16.35" duration="282.00" routeLength="615.10" waitingTime="233.00" waitingCount="1" stopTime="0.00" timeLoss="245.63" rerouteNo="0" devices="tripinfo_7" vType="DEFAULT_VEHTYPE" speedFactor="0.89" vaporized=""/>
    <tripinfo id="8" depart="28.00" departLane="52o_0" departPos="5.10" departSpeed="0.00" departDelay="-0.56" arrival="307.00" arrivalLane="51i_1" arrivalPos="10.00" arrivalSpeed="17.55" duration="279.00" routeLength="615.10" waitingTime="233.00" waitingCount="1" stopTime="0.00" timeLoss="245.15" rerouteNo="0" devices="tripinfo_8" vType="DEFAULT_VEHTYPE" speedFactor="0.94" vaporized=""/>
    <tripinfo id="11" depart="39.00" departLane="52o_0" departPos="5.10" departSpeed="0.00" departDelay="-0.27" arrival="307.00" arrivalLane="53i_1" arrivalPos="10.00" arrivalSpeed="19.17" duration="268.00" routeLength="617.75" waitingTime="223.00" waitingCount="1" stopTime="0.00" timeLoss="235.84" rerouteNo="0" devices="tripinfo_11" vType="DEFAULT_VEHTYPE" speedFactor="1.03" vaporized=""/>
    <tripinfo id="19" depart="67.00" departLane="52o_0" departPos="5.10" departSpeed="0.00" departDelay="-0.83" arrival="307.00" arrivalLane="51i_0" arrivalPos="10.00" arrivalSpeed="20.77" duration="240.00" routeLength="615.10" waitingTime="188.00" waitingCount="2" stopTime="0.00" timeLoss="212.10" rerouteNo="0" devices="tripinfo_19" vType="DEFAULT_VEHTYPE" speedFactor="1.16" vaporized=""/>
    <tripinfo id="30" depart="107.00" departLane="52o_0" departPos="5.10" departSpeed="0.00" departDelay="-0.10" arrival="307.00" arrivalLane="54i_0" arrivalPos="10.00" arrivalSpeed="22.80" duration="200.00" routeLength="596.93" waitingTime="155.00" waitingCount="1" stopTime="0.00" timeLoss="172.39" rerouteNo="0" devices="tripinfo_30" vType="DEFAULT_VEHTYPE" speedFactor="1.18" vaporized=""/>
    <tripinfo id="5" depart="17.00" departLane="52o_0" departPos="5.10" departSpeed="0.00" departDelay="-0.85" arrival="308.00" arrivalLane="53i_0" arrivalPos="10.00" arrivalSpeed="15.49" duration="291.00" routeLength="617.75" waitingTime="239.00" waitingCount="1" stopTime="0.00" timeLoss="251.25" rerouteNo="0" devices="tripinfo_5" vType="DEFAULT_VEHTYPE" speedFactor="0.83" vaporized=""/>
    <tripinfo id="27" depart="96.00" departLane="52o_0" departPos="5.10" departSpeed="0.00" departDelay="-0.39" arrival="309.00" arrivalLane="51i_1" arrivalPos="10.00" arrivalSpeed="17.35" duration="213.00" routeLength="615.10" waitingTime="162.00" waitingCount="1" stopTime="0.00" timeLoss="179.13" rerouteNo="0" devices="tripinfo_27" vType="DEFAULT_VEHTYPE" speedFactor="0.95" vaporized=""/>
    <tripinfo id="14" depart="49.00" departLane="52o_0" departPos="5.10" departSpeed="0.00" departDelay="-0.98" arrival="310.00" arrivalLane="53i_0" arrivalPos="10.00" arrivalSpeed="18.92" duration="261.00" routeLength="617.75" waitingTime="213.00" waitingCount="1" stopTime="0.00" timeLoss="227.11" rerouteNo="0" devices="tripinfo_14" vType="DEFAULT_VEHTYPE" speedFactor="0.99" vaporized=""/>
    <tripinfo id="46" depart="164.00" departLane="52o_0" departPos="5.10" departSpeed="0.00" departDelay="-0.22" arrival="310.00" arrivalLane="51i_1" arrivalPos="10.00" arrivalSpeed="19.14" duration="146.00" routeLength="615.10" waitingTime="97.00" waitingCount="1" stopTime="0.00" timeLoss="114.23" rerouteNo="0" devices="tripinfo_46" vType="DEFAULT_VEHTYPE" speedFactor="1.00" vaporized=""/>
    <tripinfo id="36" depart="128.00" departLane="52o_0" departPos="5.10" departSpeed="0.00" departDelay="-0.52" arrival="311.00" arrivalLane="54i_0" arrivalPos="10.00" arrivalSpeed="17.75" duration="183.00" routeLength="596.93" waitingTime="136.00" waitingCount="1" stopTime="0.00" timeLoss="149.58" rerouteNo="0" devices="tripinfo_36" vType="DEFAULT_VEHTYPE" speedFactor="0.97" vaporized=""/>
    <tripinfo id="37" depart="132.00" departLane="52o_0" departPos="5.10" departSpeed="0.00" departDelay="-0.09" arrival="312.00" arrivalLane="54i_0" arrivalPos="10.00" arrivalSpeed="19.78" duration="180.00" routeLength="596.93" waitingTime="133.00" waitingCount="1" stopTime="0.00" timeLoss="153.31" rerouteNo="0" devices="tripinfo_37" vType="DEFAULT_VEHTYPE" speedFactor="1.18" vaporized=""/>
    <tripinfo id="48" depart="171.00" departLane="52o_0" departPos="5.10" departSpeed="0.00" departDelay="-0.36" arrival="313.00" arrivalLane="51i_1" arrivalPos="10.00" arrivalSpeed="16.01" duration="142.00" routeLength="615.10" waitingTime="90.00" waitingCount="1" stopTime="0.00" timeLoss="105.80" rerouteNo="0" devices="tripinfo_48" vType="DEFAULT_VEHTYPE" speedFactor="0.88" vaporized=""/>
    <tripinfo id="16" depart="57.00" departLane="52o_0" departPos="5.10" departSpeed="0.00" departDelay="-0.12" arrival="314.00" arrivalLane="53i_0" arrivalPos="10.00" arrivalSpeed="16.21" duration="257.00" routeLength="617.75" waitingTime="204.00" waitingCount="1" stopTime="0.00" timeLoss="218.84" rerouteNo="0" devices="tripinfo_16" vType="DEFAULT_VEHTYPE" speedFactor="0.88" vaporized=""/>
    <tripinfo id="40" depart="142.00" departLane="52o_0" departPos="5.10" departSpeed="0.00" departDelay="-0.80" arrival="315.00" arrivalLane="54i_0" arrivalPos="10.00" arrivalSpeed="19.01" duration="173.00" routeLength="596.93" waitingTime="123.00" waitingCount="1" stopTime="0.00" timeLoss="142.03" rerouteNo="0" devices="tripinfo_40" vType="DEFAULT_VEHTYPE" speedFactor="1.03" vaporized=""/>
    <tripinfo id="18" depart="64.00" departLane="52o_0" departPos="5.10" departSpeed="0.00" departDelay="-0.26" arrival="316.00" arrivalLane="53i_0" arrivalPos="10.00" arrivalSpeed="17.44" duration="252.00" routeLength="617.75" waitingTime="200.00" waitingCount="1" stopTime="0.00" timeLoss="216.56" rerouteNo="0" devices="tripinfo_18" vType="DEFAULT_VEHTYPE" speedFactor="0.94" vaporized=""/>
    <tripinfo id="49" depart="174.00" departLane="52o_0" departPos="5.10" departSpeed="0.00" departDelay="-0.93" arrival="316.00" arrivalLane="51i_1" arrivalPos="10.00" arrivalSpeed="16.52" duration="142.00" routeLength="615.10" waitingTime="88.00" waitingCount="1" stopTime="0.00" timeLoss="104.12" rerouteNo="0" devices="tripinfo_49" vType="DEFAULT_VEHTYPE" speedFactor="0.85" vaporized=""/>
    <tripinfo id="43" depart="153.00" departLane="52o_0" departPos="5.10" departSpeed="0.00" departDelay="-0.51" arrival="317.00" arrivalLane="54i_0" arrivalPos="10.00" arrivalSpeed="19.54" duration="164.00" routeLength="596.93" waitingTime="116.00" waitingCount="1" stopTime="0.00" timeLoss="133.84" rerouteNo="0" devices="tripinfo_43" vType="DEFAULT_VEHTYPE" speedFactor="1.04" vaporized=""/>
    <tripinfo id="22" depart="78.00" departLane="52o_0" departPos="5.10" departSpeed="0.00" departDelay="-0.54" arrival="318.00" arrivalLane="53i_0" arrivalPos="10.00" arrivalSpeed="18.72" duration="240.00" routeLength="617.75" waitingTime="189.00" waitingCount="1" stopTime="0.00" timeLoss="206.38" rerouteNo="0" devices="tripinfo_22" vType="DEFAULT_VEHTYPE" speedFactor="0.98" vaporized=""/>
    <tripinfo id="77" depart="274.00" departLane="52o_0" departPos="5.10" departSpeed="0.00" departDelay="-0.89" arrival="319.00" arrivalLane="51i_1" arrivalPos="10.00" arrivalSpeed="18.22" duration="45.00" routeLength="615.10" waitingTime="0.00" waitingCount="0" stopTime="0.00" timeLoss="12.48" rerouteNo="0" devices="tripinfo_77" vType="DEFAULT_VEHTYPE" speedFactor="0.98" vaporized=""/>
    <tripinfo id="38" depart="135.00" departLane="52o_0" departPos="5.10" departSpeed="0.00" departDelay="-0.66" arrival="320.00" arrivalLane="53i_0" arrivalPos="10.00" arrivalSpeed="20.95" duration="185.00" routeLength="617.75" waitingTime="134.00" waitingCount="1" stopTime="0.00" timeLoss="154.70" rerouteNo="0" devices="tripinfo_38" vType="DEFAULT_VEHTYPE" speedFactor="1.10" vaporized=""/>
    <tripinfo id="62" depart="221.00" departLane="52o_0" departPos="5.10" departSpeed="0.00" departDelay="-0.34" arrival="321.00" arrivalLane="54i_0" arrivalPos="10.00" arrivalSpeed="19.33" duration="100.00" routeLength="596.93" waitingTime="49.00" waitingCount="1" stopTime="0.00" timeLoss="68.02" rerouteNo="0" devices="tripinfo_62" vType="DEFAULT_VEHTYPE" speedFactor="1.02" vaporized=""/>
    <tripinfo id="53" depart="189.00" departLane="52o_0" departPos="5.10" departSpeed="0.00" departDelay="-0.21" arrival="322.00" arrivalLane="53i_0" arrivalPos="10.00" arrivalSpeed="20.12" duration="133.00" routeLength="617.75" waitingTime="81.00" waitingCount="1" stopTime="0.00" timeLoss="102.53" rerouteNo="0" devices="tripinfo_53" vType="DEFAULT_VEHTYPE" speedFactor="1.10" vaporized=""/>
    <tripinfo id="70" depart="249.00" departLane="52o_0" departPos="5.10" departSpeed="0.00" departDelay="-0.90" arrival="323.00" arrivalLane="54i_0" arrivalPos="10.00" arrivalSpeed="19.11" duration="74.00" routeLength="596.93" waitingTime="22.00" waitingCount="1" stopTime="0.00" timeLoss="42.57" rerouteNo="0" devices="tripinfo_70" vType="DEFAULT_VEHTYPE" speedFactor="1.02" vaporized=""/>
    <tripinfo id="54" depart="192.00" departLane="52o_0" departPos="5.10" departSpeed="0.00" departDelay="-0.78" arrival="325.00" arrivalLane="53i_0" arrivalPos="10.00" arrivalSpeed="19.05" duration="133.00" routeLength="617.75" waitingTime="79.00" waitingCount="1" stopTime="0.00" timeLoss="99.52" rerouteNo="0" devices="tripinfo_54" vType="DEFAULT_VEHTYPE" speedFactor="1.00" vaporized=""/>
    <tripinfo id="80" depart="285.00" departLane="52o_0" departPos="5.10" departSpeed="0.00" departDelay="-0.60" arrival="326.00" arrivalLane="54i_0" arrivalPos="10.00" arrivalSpeed="19.44" duration="41.00" routeLength="596.93" waitingTime="0.00" waitingCount="0" stopTime="0.00" timeLoss="9.78" rerouteNo="0" devices="tripinfo_80" vType="DEFAULT_VEHTYPE" speedFactor="1.03" vaporized=""/>
    <tripinfo id="74" depart="264.00" departLane="52o_0" departPos="5.10" departSpeed="0.00" departDelay="-0.18" arrival="329.00" arrivalLane="53i_0" arrivalPos="10.00" arrivalSpeed="18.44" duration="65.00" routeLength="617.75" waitingTime="8.00" waitingCount="1" stopTime="0.00" timeLoss="30.25" rerouteNo="0" devices="tripinfo_74" vType="DEFAULT_VEHTYPE" speedFactor="0.96" vaporized=""/>
    <tripinfo id="34" depart="121.00" departLane="53o_0" departPos="5.10" departSpeed="0.00" departDelay="-0.38" arrival="354.00" arrivalLane="54i_0" arrivalPos="10.00" arrivalSpeed="18.52" duration="233.00" routeLength="615.10" waitingTime="189.00" waitingCount="1" stopTime="0.00" timeLoss="201.00" rerouteNo="0" devices="tripinfo_34" vType="DEFAULT_VEHTYPE" speedFactor="0.99" vaporized=""/>
    <tripinfo id="35" depart="124.00" departLane="53o_0" departPos="5.10" departSpeed="0.00" departDelay="-0.95" arrival="355.00" arrivalLane="54i_0" arrivalPos="10.00" arrivalSpeed="19.55" duration="231.00" routeLength="615.10" waitingTime="184.00" waitingCount="1" stopTime="0.00" timeLoss="198.99" rerouteNo="0" devices="tripinfo_35" vType="DEFAULT_VEHTYPE" speedFactor="1.02" vaporized=""/>
    <tripinfo id="52" depart="185.00" departLane="53o_0" departPos="5.10" departSpeed="0.00" departDelay="-0.64" arrival="355.00" arrivalLane="51i_0" arrivalPos="10.00" arrivalSpeed="18.59" duration="170.00" routeLength="617.75" waitingTime="124.00" waitingCount="1" stopTime="0.00" timeLoss="137.27" rerouteNo="0" devices="tripinfo_52" vType="DEFAULT_VEHTYPE" speedFactor="1.02" vaporized=""/>
    <tripinfo id="55" depart="196.00" departLane="53o_0" departPos="5.10" departSpeed="0.00" departDelay="-0.35" arrival="357.00" arrivalLane="51i_0" arrivalPos="10.00" arrivalSpeed="18.16" duration="161.00" routeLength="617.75" waitingTime="114.00" waitingCount="1" stopTime="0.00" timeLoss="127.65" rerouteNo="0" devices="tripinfo_55" vType="DEFAULT_VEHTYPE" speedFactor="1.00" vaporized=""/>
    <tripinfo id="39" depart="139.00" departLane="53o_0" departPos="5.10" departSpeed="0.00" departDelay="-0.23" arrival="358.00" arrivalLane="52i_0" arrivalPos="10.00" arrivalSpeed="16.50" duration="219.00" routeLength="596.93" waitingTime="171.00" waitingCount="1" stopTime="0.00" timeLoss="183.01" rerouteNo="0" devices="tripinfo_39" vType="DEFAULT_VEHTYPE" speedFactor="0.90" vaporized=""/>
    <tripinfo id="51" depart="182.00" departLane="53o_0" departPos="5.10" departSpeed="0.00" departDelay="-0.07" arrival="359.00" arrivalLane="52i_0" arrivalPos="10.00" arrivalSpeed="18.49" duration="177.00" routeLength="596.93" waitingTime="131.00" waitingCount="1" stopTime="0.00" timeLoss="149.58" rerouteNo="0" devices="tripinfo_51" vType="DEFAULT_VEHTYPE" speedFactor="1.17" vaporized=""/>
    <tripinfo id="60" depart="214.00" departLane="53o_0" departPos="5.10" departSpeed="0.00" departDelay="-0.20" arrival="359.00" arrivalLane="51i_0" arrivalPos="10.00" arrivalSpeed="20.41" duration="145.00" routeLength="617.75" waitingTime="98.00" waitingCount="1" stopTime="0.00" timeLoss="114.08" rerouteNo="0" devices="tripinfo_60" vType="DEFAULT_VEHTYPE" speedFactor="1.08" vaporized=""/>
    <tripinfo id="61" depart="217.00" departLane="53o_0" departPos="5.10" departSpeed="0.00" departDelay="-0.77" arrival="361.00" arrivalLane="52i_0" arrivalPos="10.00" arrivalSpeed="20.37" duration="144.00" routeLength="596.93" waitingTime="97.00" waitingCount="1" stopTime="0.00" timeLoss="114.64" rerouteNo="0" devices="tripinfo_61" vType="DEFAULT_VEHTYPE" speedFactor="1.12" vaporized=""/>
    <tripinfo id="71" depart="253.00" departLane="53o_0" departPos="5.10" departSpeed="0.00" departDelay="-0.47" arrival="362.00" arrivalLane="51i_0" arrivalPos="10.00" arrivalSpeed="18.19" duration="109.00" routeLength="617.75" waitingTime="60.00" waitingCount="1" stopTime="0.00" timeLoss="74.61" rerouteNo="0" devices="tripinfo_71" vType="DEFAULT_VEHTYPE" speedFactor="0.97" vaporized=""/>
    <tripinfo id="69" depart="246.00" departLane="53o_0" departPos="5.10" departSpeed="0.00" departDelay="-0.33" arrival="363.00" arrivalLane="52i_0" arrivalPos="10.00" arrivalSpeed="19.25" duration="117.00" routeLength="596.93" waitingTime="69.00" waitingCount="1" stopTime="0.00" timeLoss="85.56" rerouteNo="0" devices="tripinfo_69" vType="DEFAULT_VEHTYPE" speedFactor="1.02" vaporized=""/>
    <tripinfo id="90" depart="321.00" departLane="53o_0" departPos="5.10" departSpeed="0.00" departDelay="-0.30" arrival="364.00" arrivalLane="51i_0" arrivalPos="10.00" arrivalSpeed="19.34" duration="43.00" routeLength="617.75" waitingTime="0.00" waitingCount="0" stopTime="0.00" timeLoss="10.32" rerouteNo="0" devices="tripinfo_90" vType="DEFAULT_VEHTYPE" speedFactor="1.02" vaporized=""/>
    <tripinfo id="82" depart="292.00" departLane="53o_0" departPos="5.10" departSpeed="0.00" departDelay="-0.74" arrival="366.00" arrivalLane="52i_0" arrivalPos="10.00" arrivalSpeed="19.10" duration="74.00" routeLength="596.93" waitingTime="23.00" waitingCount="1" stopTime="0.00" timeLoss="42.50" rerouteNo="0" devices="tripinfo_82" vType="DEFAULT_VEHTYPE" speedFactor="1.02" vaporized=""/>
    <tripinfo id="98" depart="349.00" departLane="53o_0" departPos="5.10" departSpeed="0.00" departDelay="-0.86" arrival="388.00" arrivalLane="51i_0" arrivalPos="10.00" arrivalSpeed="21.75" duration="39.00" routeLength="617.75" waitingTime="0.00" waitingCount="0" stopTime="0.00" timeLoss="9.46" rerouteNo="0" devices="tripinfo_98" vType="DEFAULT_VEHTYPE" speedFactor="1.12" vaporized=""/>
    <tripinfo id="101" depart="360.00" departLane="53o_0" departPos="5.10" departSpeed="0.00" departDelay="-0.57" arrival="402.00" arrivalLane="52i_0" arrivalPos="10.00" arrivalSpeed="18.22" duration="42.00" routeLength="596.93" waitingTime="0.00" waitingCount="0" stopTime="0.00" timeLoss="8.39" rerouteNo="0" devices="tripinfo_101" vType="DEFAULT_VEHTYPE" speedFactor="0.96" vaporized=""/>
    <tripinfo id="105" depart="374.00" departLane="53o_0" departPos="5.10" departSpeed="0.00" departDelay="-0.85" arrival="413.00" arrivalLane="52i_0" arrivalPos="10.00" arrivalSpeed="19.63" duration="39.00" routeLength="596.93" waitingTime="0.00" waitingCount="0" stopTime="0.00" timeLoss="8.89" rerouteNo="0" devices="tripinfo_105" vType="DEFAULT_VEHTYPE" speedFactor="1.07" vaporized=""/>