<?xml version="1.0" encoding="UTF-8"?>

<!-- generated on Fri Nov  8 01:09:34 2019 by Eclipse SUMO Version 1.2.0
<configuration xmlns:xsi="http://www.w3.org/2001/XMLSchema-instance" xsi:noNamespaceSchemaLocation="http://sumo.dlr.de/xsd/sumoConfiguration.xsd">

    <input>
        <net-file value="simulation_files/sumocfgs/../networks/isolated_3_lanes_4_stages.net.xml"/>
        <route-files value="simulation_files/sumocfgs/../routes/isolated_3_lanes_20p.rou.xml"/>
    </input>

    <output>
        <tripinfo-output value="./output/exp21_rf_20p/throughput__3_tripinfo_isolated.xml"/>
    </output>

    <time>
        <begin value="0"/>
        <step-length value="1"/>
    </time>

    <report>
        <verbose value="true"/>
        <no-step-log value="true"/>
    </report>

    <gui_only>
        <tracker-interval value="1"/>
    </gui_only>

</configuration>
-->

<tripinfos xmlns:xsi="http://www.w3.org/2001/XMLSchema-instance" xsi:noNamespaceSchemaLocation="http://sumo.dlr.de/xsd/tripinfo_file.xsd">
    <tripinfo id="2" depart="7.00" departLane="52o_0" departPos="5.10" departSpeed="0.00" departDelay="-0.14" arrival="48.00" arrivalLane="54i_0" arrivalPos="10.00" arrivalSpeed="19.14" duration="41.00" routeLength="596.93" waitingTime="0.00" waitingCount="0" stopTime="0.00" timeLoss="9.18" rerouteNo="0" devices="tripinfo_2" vType="DEFAULT_VEHTYPE" speedFactor="1.01" vaporized=""/>
    <tripinfo id="6" depart="21.00" departLane="52o_0" departPos="5.10" departSpeed="0.00" departDelay="-0.42" arrival="57.00" arrivalLane="51i_0" arrivalPos="10.00" arrivalSpeed="19.72" duration="36.00" routeLength="615.10" waitingTime="0.00" waitingCount="0" stopTime="0.00" timeLoss="5.27" rerouteNo="0" devices="tripinfo_6" vType="DEFAULT_VEHTYPE" speedFactor="1.05" vaporized=""/>
    <tripinfo id="5" depart="17.00" departLane="52o_0" departPos="5.10" departSpeed="0.00" departDelay="-0.85" arrival="64.00" arrivalLane="53i_0" arrivalPos="10.00" arrivalSpeed="15.40" duration="47.00" routeLength="617.75" waitingTime="0.00" waitingCount="0" stopTime="0.00" timeLoss="6.72" rerouteNo="0" devices="tripinfo_5" vType="DEFAULT_VEHTYPE" speedFactor="0.83" vaporized=""/>
    <tripinfo id="7" depart="24.00" departLane="52o_0" departPos="5.10" departSpeed="0.00" departDelay="-0.99" arrival="66.00" arrivalLane="51i_0" arrivalPos="10.00" arrivalSpeed="16.20" duration="42.00" routeLength="615.10" waitingTime="0.00" waitingCount="0" stopTime="0.00" timeLoss="5.58" rerouteNo="0" devices="tripinfo_7" vType="DEFAULT_VEHTYPE" speedFactor="0.89" vaporized=""/>
    <tripinfo id="8" depart="28.00" departLane="52o_0" departPos="5.10" departSpeed="0.00" departDelay="-0.56" arrival="67.00" arrivalLane="51i_0" arrivalPos="10.00" arrivalSpeed="17.67" duration="39.00" routeLength="615.10" waitingTime="0.00" waitingCount="0" stopTime="0.00" timeLoss="5.05" rerouteNo="0" devices="tripinfo_8" vType="DEFAULT_VEHTYPE" speedFactor="0.94" vaporized=""/>
    <tripinfo id="11" depart="39.00" departLane="52o_0" departPos="5.10" departSpeed="0.00" departDelay="-0.27" arrival="80.00" arrivalLane="53i_0" arrivalPos="10.00" arrivalSpeed="19.90" duration="41.00" routeLength="617.75" waitingTime="0.00" waitingCount="0" stopTime="0.00" timeLoss="8.14" rerouteNo="0" devices="tripinfo_11" vType="DEFAULT_VEHTYPE" speedFactor="1.03" vaporized=""/>
    <tripinfo id="14" depart="49.00" departLane="52o_0" departPos="5.10" departSpeed="0.00" departDelay="-0.98" arrival="91.00" arrivalLane="53i_0" arrivalPos="10.00" arrivalSpeed="18.88" duration="42.00" routeLength="617.75" waitingTime="0.00" waitingCount="0" stopTime="0.00" timeLoss="8.45" rerouteNo="0" devices="tripinfo_14" vType="DEFAULT_VEHTYPE" speedFactor="0.99" vaporized=""/>
    <tripinfo id="0" depart="0.00" departLane="53o_0" departPos="5.10" departSpeed="0.00" departDelay="0.00" arrival="99.00" arrivalLane="52i_0" arrivalPos="10.00" arrivalSpeed="19.38" duration="99.00" routeLength="596.93" waitingTime="56.00" waitingCount="1" stopTime="0.00" timeLoss="68.86" rerouteNo="0" devices="tripinfo_0" vType="DEFAULT_VEHTYPE" speedFactor="1.06" vaporized=""/>
    <tripinfo id="12" depart="42.00" departLane="53o_0" departPos="5.10" departSpeed="0.00" departDelay="-0.84" arrival="99.00" arrivalLane="54i_1" arrivalPos="10.00" arrivalSpeed="19.97" duration="57.00" routeLength="615.10" waitingTime="13.00" waitingCount="1" stopTime="0.00" timeLoss="26.67" rerouteNo="0" devices="tripinfo_12" vType="DEFAULT_VEHTYPE" speedFactor="1.05" vaporized=""/>
    <tripinfo id="15" depart="53.00" departLane="53o_0" departPos="5.10" departSpeed="0.00" departDelay="-0.55" arrival="102.00" arrivalLane="54i_2" arrivalPos="10.00" arrivalSpeed="17.54" duration="49.00" routeLength="615.10" waitingTime="0.00" waitingCount="0" stopTime="0.00" timeLoss="14.06" rerouteNo="0" devices="tripinfo_15" vType="DEFAULT_VEHTYPE" speedFactor="0.93" vaporized=""/>
    <tripinfo id="17" depart="60.00" departLane="53o_0" departPos="5.10" departSpeed="0.00" departDelay="-0.69" arrival="104.00" arrivalLane="52i_0" arrivalPos="10.00" arrivalSpeed="17.03" duration="44.00" routeLength="596.93" waitingTime="0.00" waitingCount="0" stopTime="0.00" timeLoss="9.51" rerouteNo="0" devices="tripinfo_17" vType="DEFAULT_VEHTYPE" speedFactor="0.94" vaporized=""/>
    <tripinfo id="24" depart="85.00" departLane="53o_0" departPos="5.10" departSpeed="0.00" departDelay="-0.68" arrival="129.00" arrivalLane="54i_0" arrivalPos="10.00" arrivalSpeed="15.06" duration="44.00" routeLength="615.10" waitingTime="0.00" waitingCount="0" stopTime="0.00" timeLoss="5.06" rerouteNo="0" devices="tripinfo_24" vType="DEFAULT_VEHTYPE" speedFactor="0.83" vaporized=""/>
    <tripinfo id="31" depart="110.00" departLane="53o_0" departPos="5.10" departSpeed="0.00" departDelay="-0.67" arrival="148.00" arrivalLane="52i_0" arrivalPos="10.00" arrivalSpeed="21.28" duration="38.00" routeLength="596.93" waitingTime="0.00" waitingCount="0" stopTime="0.00" timeLoss="10.07" rerouteNo="0" devices="tripinfo_31" vType="DEFAULT_VEHTYPE" speedFactor="1.15" vaporized=""/>
    <tripinfo id="32" depart="114.00" departLane="53o_0" departPos="5.10" departSpeed="0.00" departDelay="-0.24" arrival="152.00" arrivalLane="54i_0" arrivalPos="10.00" arrivalSpeed="18.65" duration="38.00" routeLength="615.10" waitingTime="0.00" waitingCount="0" stopTime="0.00" timeLoss="6.16" rerouteNo="0" devices="tripinfo_32" vType="DEFAULT_VEHTYPE" speedFactor="1.01" vaporized=""/>
    <tripinfo id="34" depart="121.00" departLane="53o_0" departPos="5.10" departSpeed="0.00" departDelay="-0.38" arrival="159.00" arrivalLane="54i_0" arrivalPos="10.00" arrivalSpeed="19.33" duration="38.00" routeLength="615.10" waitingTime="0.00" waitingCount="0" stopTime="0.00" timeLoss="5.97" rerouteNo="0" devices="tripinfo_34" vType="DEFAULT_VEHTYPE" speedFactor="0.99" vaporized=""/>
    <tripinfo id="1" depart="3.00" departLane="51o_0" departPos="5.10" departSpeed="0.00" departDelay="-0.57" arrival="168.00" arrivalLane="53i_0" arrivalPos="10.00" arrivalSpeed="18.24" duration="165.00" routeLength="596.93" waitingTime="118.00" waitingCount="1" stopTime="0.00" timeLoss="131.59" rerouteNo="0" devices="tripinfo_1" vType="DEFAULT_VEHTYPE" speedFactor="0.94" vaporized=""/>
    <tripinfo id="13" depart="46.00" departLane="51o_0" departPos="5.10" departSpeed="0.00" departDelay="-0.41" arrival="170.00" arrivalLane="53i_0" arrivalPos="10.00" arrivalSpeed="20.65" duration="124.00" routeLength="596.93" waitingTime="79.00" waitingCount="1" stopTime="0.00" timeLoss="94.97" rerouteNo="0" devices="tripinfo_13" vType="DEFAULT_VEHTYPE" speedFactor="1.12" vaporized=""/>
    <tripinfo id="9" depart="32.00" departLane="51o_0" departPos="5.10" departSpeed="0.00" departDelay="-0.13" arrival="171.00" arrivalLane="54i_0" arrivalPos="10.00" arrivalSpeed="16.41" duration="139.00" routeLength="617.75" waitingTime="88.00" waitingCount="1" stopTime="0.00" timeLoss="100.38" rerouteNo="0" devices="tripinfo_9" vType="DEFAULT_VEHTYPE" speedFactor="0.86" vaporized=""/>
    <tripinfo id="21" depart="74.00" departLane="51o_0" departPos="5.10" departSpeed="0.00" departDelay="-0.97" arrival="172.00" arrivalLane="53i_0" arrivalPos="10.00" arrivalSpeed="18.52" duration="98.00" routeLength="596.93" waitingTime="53.00" waitingCount="1" stopTime="0.00" timeLoss="66.89" rerouteNo="0" devices="tripinfo_21" vType="DEFAULT_VEHTYPE" speedFactor="1.01" vaporized=""/>
    <tripinfo id="25" depart="89.00" departLane="51o_0" departPos="5.10" departSpeed="0.00" departDelay="-0.25" arrival="173.00" arrivalLane="54i_0" arrivalPos="10.00" arrivalSpeed="16.63" duration="84.00" routeLength="617.75" waitingTime="34.00" waitingCount="1" stopTime="0.00" timeLoss="45.67" rerouteNo="0" devices="tripinfo_25" vType="DEFAULT_VEHTYPE" speedFactor="0.87" vaporized=""/>
    <tripinfo id="23" depart="82.00" departLane="51o_0" departPos="5.10" departSpeed="0.00" departDelay="-0.11" arrival="177.00" arrivalLane="53i_0" arrivalPos="10.00" arrivalSpeed="16.34" duration="95.00" routeLength="596.93" waitingTime="43.00" waitingCount="1" stopTime="0.00" timeLoss="58.82" rerouteNo="0" devices="tripinfo_23" vType="DEFAULT_VEHTYPE" speedFactor="0.89" vaporized=""/>
    <tripinfo id="26" depart="92.00" departLane="51o_0" departPos="5.10" departSpeed="0.00" departDelay="-0.82" arrival="179.00" arrivalLane="53i_0" arrivalPos="10.00" arrivalSpeed="16.82" duration="87.00" routeLength="596.93" waitingTime="34.00" waitingCount="1" stopTime="0.00" timeLoss="52.38" rerouteNo="0" devices="tripinfo_26" vType="DEFAULT_VEHTYPE" speedFactor="0.92" vaporized=""/>
    <tripinfo id="41" depart="146.00" departLane="51o_0" departPos="5.10" departSpeed="0.00" departDelay="-0.37" arrival="188.00" arrivalLane="53i_0" arrivalPos="10.00" arrivalSpeed="18.18" duration="42.00" routeLength="596.93" waitingTime="0.00" waitingCount="0" stopTime="0.00" timeLoss="8.58" rerouteNo="0" devices="tripinfo_41" vType="DEFAULT_VEHTYPE" speedFactor="0.96" vaporized=""/>
    <tripinfo id="45" depart="160.00" departLane="51o_0" departPos="5.10" departSpeed="0.00" departDelay="-0.65" arrival="196.00" arrivalLane="52i_0" arrivalPos="10.00" arrivalSpeed="20.37" duration="36.00" routeLength="615.10" waitingTime="0.00" waitingCount="0" stopTime="0.00" timeLoss="5.99" rerouteNo="0" devices="tripinfo_45" vType="DEFAULT_VEHTYPE" speedFactor="1.09" vaporized=""/>
    <tripinfo id="57" depart="203.00" departLane="51o_0" departPos="5.10" departSpeed="0.00" departDelay="-0.49" arrival="240.00" arrivalLane="53i_0" arrivalPos="10.00" arrivalSpeed="21.78" duration="37.00" routeLength="596.93" waitingTime="0.00" waitingCount="0" stopTime="0.00" timeLoss="8.89" rerouteNo="0" devices="tripinfo_57" vType="DEFAULT_VEHTYPE" speedFactor="1.14" vaporized=""/>
    <tripinfo id="20" depart="71.00" departLane="54o_0" departPos="5.10" departSpeed="0.00" departDelay="-0.40" arrival="250.00" arrivalLane="53i_1" arrivalPos="10.00" arrivalSpeed="18.71" duration="179.00" routeLength="615.10" waitingTime="135.00" waitingCount="1" stopTime="0.00" timeLoss="147.86" rerouteNo="0" devices="tripinfo_20" vType="DEFAULT_VEHTYPE" speedFactor="1.02" vaporized=""/>
    <tripinfo id="3" depart="10.00" departLane="54o_0" departPos="5.10" departSpeed="0.00" departDelay="-0.71" arrival="251.00" arrivalLane="53i_0" arrivalPos="10.00" arrivalSpeed="20.39" duration="241.00" routeLength="615.10" waitingTime="196.00" waitingCount="1" stopTime="0.00" timeLoss="211.09" rerouteNo="0" devices="tripinfo_3" vType="DEFAULT_VEHTYPE" speedFactor="1.08" vaporized=""/>
    <tripinfo id="4" depart="14.00" departLane="54o_0" departPos="5.10" departSpeed="0.00" departDelay="-0.28" arrival="251.00" arrivalLane="52i_0" arrivalPos="10.00" arrivalSpeed="19.99" duration="237.00" routeLength="617.75" waitingTime="192.00" waitingCount="1" stopTime="0.00" timeLoss="204.78" rerouteNo="0" devices="tripinfo_4" vType="DEFAULT_VEHTYPE" speedFactor="1.03" vaporized=""/>
    <tripinfo id="28" depart="99.00" departLane="54o_0" departPos="5.10" departSpeed="0.00" departDelay="-0.96" arrival="252.00" arrivalLane="51i_0" arrivalPos="10.00" arrivalSpeed="20.82" duration="153.00" routeLength="596.93" waitingTime="109.00" waitingCount="1" stopTime="0.00" timeLoss="123.96" rerouteNo="0" devices="tripinfo_28" vType="DEFAULT_VEHTYPE" speedFactor="1.13" vaporized=""/>
    <tripinfo id="10" depart="35.00" departLane="54o_0" departPos="5.10" departSpeed="0.00" departDelay="-0.70" arrival="253.00" arrivalLane="52i_0" arrivalPos="10.00" arrivalSpeed="20.20" duration="218.00" routeLength="617.75" waitingTime="174.00" waitingCount="1" stopTime="0.00" timeLoss="187.22" rerouteNo="0" devices="tripinfo_10" vType="DEFAULT_VEHTYPE" speedFactor="1.09" vaporized=""/>
    <tripinfo id="33" depart="117.00" departLane="54o_0" departPos="5.10" departSpeed="0.00" departDelay="-0.81" arrival="253.00" arrivalLane="51i_0" arrivalPos="10.00" arrivalSpeed="22.45" duration="136.00" routeLength="596.93" waitingTime="94.00" waitingCount="1" stopTime="0.00" timeLoss="108.72" rerouteNo="0" devices="tripinfo_33" vType="DEFAULT_VEHTYPE" speedFactor="1.17" vaporized=""/>
    <tripinfo id="29" depart="103.00" departLane="54o_0" departPos="5.10" departSpeed="0.00" departDelay="-0.53" arrival="254.00" arrivalLane="53i_1" arrivalPos="10.00" arrivalSpeed="17.65" duration="151.00" routeLength="615.10" waitingTime="101.00" waitingCount="1" stopTime="0.00" timeLoss="116.30" rerouteNo="0" devices="tripinfo_29" vType="DEFAULT_VEHTYPE" speedFactor="0.93" vaporized=""/>
    <tripinfo id="44" depart="157.00" departLane="54o_0" departPos="5.10" departSpeed="0.00" departDelay="-0.08" arrival="254.00" arrivalLane="53i_2" arrivalPos="10.00" arrivalSpeed="19.71" duration="97.00" routeLength="615.10" waitingTime="52.00" waitingCount="1" stopTime="0.00" timeLoss="66.56" rerouteNo="0" devices="tripinfo_44" vType="DEFAULT_VEHTYPE" speedFactor="1.04" vaporized=""/>
    <tripinfo id="56" depart="199.00" departLane="54o_0" departPos="5.10" departSpeed="0.00" departDelay="-0.92" arrival="256.00" arrivalLane="53i_1" arrivalPos="10.00" arrivalSpeed="16.28" duration="57.00" routeLength="615.10" waitingTime="6.00" waitingCount="1" stopTime="0.00" timeLoss="21.41" rerouteNo="0" devices="tripinfo_56" vType="DEFAULT_VEHTYPE" speedFactor="0.90" vaporized=""/>
    <tripinfo id="42" depart="149.00" departLane="54o_0" departPos="5.10" departSpeed="0.00" departDelay="-0.94" arrival="257.00" arrivalLane="51i_0" arrivalPos="10.00" arrivalSpeed="20.02" duration="108.00" routeLength="596.93" waitingTime="62.00" waitingCount="1" stopTime="0.00" timeLoss="77.83" rerouteNo="0" devices="tripinfo_42" vType="DEFAULT_VEHTYPE" speedFactor="1.09" vaporized=""/>
    <tripinfo id="58" depart="207.00" departLane="54o_0" departPos="5.10" departSpeed="0.00" departDelay="-0.06" arrival="258.00" arrivalLane="53i_1" arrivalPos="10.00" arrivalSpeed="18.83" duration="51.00" routeLength="615.10" waitingTime="0.00" waitingCount="0" stopTime="0.00" timeLoss="19.22" rerouteNo="0" devices="tripinfo_58" vType="DEFAULT_VEHTYPE" speedFactor="1.02" vaporized=""/>
    <tripinfo id="47" depart="167.00" departLane="54o_0" departPos="5.10" departSpeed="0.00" departDelay="-0.79" arrival="260.00" arrivalLane="52i_0" arrivalPos="10.00" arrivalSpeed="16.99" duration="93.00" routeLength="617.75" waitingTime="41.00" waitingCount="1" stopTime="0.00" timeLoss="56.55" rerouteNo="0" devices="tripinfo_47" vType="DEFAULT_VEHTYPE" speedFactor="0.90" vaporized=""/>
    <tripinfo id="50" depart="178.00" departLane="54o_0" departPos="5.10" departSpeed="0.00" departDelay="-0.50" arrival="264.00" arrivalLane="52i_0" arrivalPos="10.00" arrivalSpeed="15.54" duration="86.00" routeLength="617.75" waitingTime="33.00" waitingCount="1" stopTime="0.00" timeLoss="46.63" rerouteNo="0" devices="tripinfo_50" vType="DEFAULT_VEHTYPE" speedFactor="0.85" vaporized=""/>
    <tripinfo id="68" depart="242.00" departLane="54o_0" departPos="5.10" departSpeed="0.00" departDelay="-0.76" arrival="281.00" arrivalLane="52i_0" arrivalPos="10.00" arrivalSpeed="19.90" duration="39.00" routeLength="617.75" waitingTime="0.00" waitingCount="0" stopTime="0.00" timeLoss="7.14" rerouteNo="0" devices="tripinfo_68" vType="DEFAULT_VEHTYPE" speedFactor="1.04" vaporized=""/>
    <tripinfo id="73" depart="260.00" departLane="54o_0" departPos="5.10" departSpeed="0.00" departDelay="-0.61" arrival="301.00" arrivalLane="52i_0" arrivalPos="10.00" arrivalSpeed="20.36" duration="41.00" routeLength="617.75" waitingTime="0.00" waitingCount="0" stopTime="0.00" timeLoss="9.38" rerouteNo="0" devices="tripinfo_73" vType="DEFAULT_VEHTYPE" speedFactor="1.06" vaporized=""/>
    <tripinfo id="75" depart="267.00" departLane="54o_0" departPos="5.10" departSpeed="0.00" departDelay="-0.75" arrival="308.00" arrivalLane="51i_0" arrivalPos="10.00" arrivalSpeed="18.97" duration="41.00" routeLength="596.93" waitingTime="0.00" waitingCount="0" stopTime="0.00" timeLoss="9.15" rerouteNo="0" devices="tripinfo_75" vType="DEFAULT_VEHTYPE" speedFactor="0.98" vaporized=""/>
    <tripinfo id="27" depart="96.00" departLane="52o_0" departPos="5.10" departSpeed="0.00" departDelay="-0.39" arrival="322.00" arrivalLane="51i_1" arrivalPos="10.00" arrivalSpeed="17.91" duration="226.00" routeLength="615.10" waitingTime="179.00" waitingCount="1" stopTime="0.00" timeLoss="192.63" rerouteNo="0" devices="tripinfo_27" vType="DEFAULT_VEHTYPE" speedFactor="0.95" vaporized=""/>
    <tripinfo id="30" depart="107.00" departLane="52o_0" departPos="5.10" departSpeed="0.00" departDelay="-0.10" arrival="322.00" arrivalLane="54i_0" arrivalPos="10.00" arrivalSpeed="22.16" duration="215.00" routeLength="596.93" waitingTime="172.00" waitingCount="1" stopTime="0.00" timeLoss="187.96" rerouteNo="0" devices="tripinfo_30" vType="DEFAULT_VEHTYPE" speedFactor="1.18" vaporized=""/>
    <tripinfo id="19" depart="67.00" departLane="52o_0" departPos="5.10" departSpeed="0.00" departDelay="-0.83" arrival="323.00" arrivalLane="51i_0" arrivalPos="10.00" arrivalSpeed="19.96" duration="256.00" routeLength="615.10" waitingTime="209.00" waitingCount="1" stopTime="0.00" timeLoss="228.01" rerouteNo="0" devices="tripinfo_19" vType="DEFAULT_VEHTYPE" speedFactor="1.16" vaporized=""/>
    <tripinfo id="46" depart="164.00" departLane="52o_0" departPos="5.10" departSpeed="0.00" departDelay="-0.22" arrival="324.00" arrivalLane="51i_1" arrivalPos="10.00" arrivalSpeed="18.52" duration="160.00" routeLength="615.10" waitingTime="111.00" waitingCount="1" stopTime="0.00" timeLoss="127.78" rerouteNo="0" devices="tripinfo_46" vType="DEFAULT_VEHTYPE" speedFactor="1.00" vaporized=""/>
    <tripinfo id="16" depart="57.00" departLane="52o_0" departPos="5.10" departSpeed="0.00" departDelay="-0.12" arrival="325.00" arrivalLane="53i_0" arrivalPos="10.00" arrivalSpeed="16.73" duration="268.00" routeLength="617.75" waitingTime="218.00" waitingCount="1" stopTime="0.00" timeLoss="229.96" rerouteNo="0" devices="tripinfo_16" vType="DEFAULT_VEHTYPE" speedFactor="0.88" vaporized=""/>
    <tripinfo id="18" depart="64.00" departLane="52o_0" departPos="5.10" departSpeed="0.00" departDelay="-0.26" arrival="326.00" arrivalLane="53i_0" arrivalPos="10.00" arrivalSpeed="17.56" duration="262.00" routeLength="617.75" waitingTime="214.00" waitingCount="1" stopTime="0.00" timeLoss="226.63" rerouteNo="0" devices="tripinfo_18" vType="DEFAULT_VEHTYPE" speedFactor="0.94" vaporized=""/>
    <tripinfo id="22" depart="78.00" departLane="52o_0" departPos="5.10" departSpeed="0.00" departDelay="-0.54" arrival="328.00" arrivalLane="53i_0" arrivalPos="10.00" arrivalSpeed="18.08" duration="250.00" routeLength="617.75" waitingTime="201.00" waitingCount="1" stopTime="0.00" timeLoss="215.71" rerouteNo="0" devices="tripinfo_22" vType="DEFAULT_VEHTYPE" speedFactor="0.98" vaporized=""/>
    <tripinfo id="36" depart="128.00" departLane="52o_0" departPos="5.10" departSpeed="0.00" departDelay="-0.52" arrival="328.00" arrivalLane="54i_0" arrivalPos="10.00" arrivalSpeed="18.15" duration="200.00" routeLength="596.93" waitingTime="150.00" waitingCount="1" stopTime="0.00" timeLoss="166.40" rerouteNo="0" devices="tripinfo_36" vType="DEFAULT_VEHTYPE" speedFactor="0.97" vaporized=""/>
    <tripinfo id="48" depart="171.00" departLane="52o_0" departPos="5.10" departSpeed="0.00" departDelay="-0.36" arrival="328.00" arrivalLane="51i_1" arrivalPos="10.00" arrivalSpeed="15.95" duration="157.00" routeLength="615.10" waitingTime="108.00" waitingCount="1" stopTime="0.00" timeLoss="120.21" rerouteNo="0" devices="tripinfo_48" vType="DEFAULT_VEHTYPE" speedFactor="0.88" vaporized=""/>
    <tripinfo id="37" depart="132.00" departLane="52o_0" departPos="5.10" departSpeed="0.00" departDelay="-0.09" arrival="329.00" arrivalLane="54i_0" arrivalPos="10.00" arrivalSpeed="20.34" duration="197.00" routeLength="596.93" waitingTime="148.00" waitingCount="1" stopTime="0.00" timeLoss="170.07" rerouteNo="0" devices="tripinfo_37" vType="DEFAULT_VEHTYPE" speedFactor="1.18" vaporized=""/>
    <tripinfo id="38" depart="135.00" departLane="52o_0" departPos="5.10" departSpeed="0.00" departDelay="-0.66" arrival="329.00" arrivalLane="53i_0" arrivalPos="10.00" arrivalSpeed="20.72" duration="194.00" routeLength="617.75" waitingTime="148.00" waitingCount="1" stopTime="0.00" timeLoss="164.18" rerouteNo="0" devices="tripinfo_38" vType="DEFAULT_VEHTYPE" speedFactor="1.10" vaporized=""/>
    <tripinfo id="49" depart="174.00" departLane="52o_0" departPos="5.10" departSpeed="0.00" departDelay="-0.93" arrival="330.00" arrivalLane="51i_1" arrivalPos="10.00" arrivalSpeed="16.52" duration="156.00" routeLength="615.10" waitingTime="106.00" waitingCount="1" stopTime="0.00" timeLoss="117.89" rerouteNo="0" devices="tripinfo_49" vType="DEFAULT_VEHTYPE" speedFactor="0.85" vaporized=""/>
    <tripinfo id="53" depart="189.00" departLane="52o_0" departPos="5.10" departSpeed="0.00" departDelay="-0.21" arrival="331.00" arrivalLane="53i_0" arrivalPos="10.00" arrivalSpeed="20.55" duration="142.00" routeLength="617.75" waitingTime="94.00" waitingCount="1" stopTime="0.00" timeLoss="111.49" rerouteNo="0" devices="tripinfo_53" vType="DEFAULT_VEHTYPE" speedFactor="1.10" vaporized=""/>
    <tripinfo id="77" depart="274.00" departLane="52o_0" departPos="5.10" departSpeed="0.00" departDelay="-0.89" arrival="331.00" arrivalLane="51i_1" arrivalPos="10.00" arrivalSpeed="17.97" duration="57.00" routeLength="615.10" waitingTime="6.00" waitingCount="1" stopTime="0.00" timeLoss="24.46" rerouteNo="0" devices="tripinfo_77" vType="DEFAULT_VEHTYPE" speedFactor="0.98" vaporized=""/>
    <tripinfo id="40" depart="142.00" departLane="52o_0" departPos="5.10" departSpeed="0.00" departDelay="-0.80" arrival="332.00" arrivalLane="54i_0" arrivalPos="10.00" arrivalSpeed="19.92" duration="190.00" routeLength="596.93" waitingTime="140.00" waitingCount="1" stopTime="0.00" timeLoss="158.00" rerouteNo="0" devices="tripinfo_40" vType="DEFAULT_VEHTYPE" speedFactor="1.03" vaporized=""/>
    <tripinfo id="43" depart="153.00" departLane="52o_0" departPos="5.10" departSpeed="0.00" departDelay="-0.51" arrival="334.00" arrivalLane="54i_0" arrivalPos="10.00" arrivalSpeed="19.00" duration="181.00" routeLength="596.93" waitingTime="132.00" waitingCount="1" stopTime="0.00" timeLoss="149.56" rerouteNo="0" devices="tripinfo_43" vType="DEFAULT_VEHTYPE" speedFactor="1.04" vaporized=""/>
    <tripinfo id="54" depart="192.00" departLane="52o_0" departPos="5.10" departSpeed="0.00" departDelay="-0.78" arrival="335.00" arrivalLane="53i_0" arrivalPos="10.00" arrivalSpeed="19.02" duration="143.00" routeLength="617.75" waitingTime="91.00" waitingCount="1" stopTime="0.00" timeLoss="109.87" rerouteNo="0" devices="tripinfo_54" vType="DEFAULT_VEHTYPE" speedFactor="1.00" vaporized=""/>
    <tripinfo id="62" depart="221.00" departLane="52o_0" departPos="5.10" departSpeed="0.00" departDelay="-0.34" arrival="337.00" arrivalLane="54i_0" arrivalPos="10.00" arrivalSpeed="19.33" duration="116.00" routeLength="596.93" waitingTime="66.00" waitingCount="1" stopTime="0.00" timeLoss="83.98" rerouteNo="0" devices="tripinfo_62" vType="DEFAULT_VEHTYPE" speedFactor="1.02" vaporized=""/>
    <tripinfo id="74" depart="264.00" departLane="52o_0" departPos="5.10" departSpeed="0.00" departDelay="-0.18" arrival="338.00" arrivalLane="53i_0" arrivalPos="10.00" arrivalSpeed="17.39" duration="74.00" routeLength="617.75" waitingTime="20.00" waitingCount="1" stopTime="0.00" timeLoss="38.79" rerouteNo="0" devices="tripinfo_74" vType="DEFAULT_VEHTYPE" speedFactor="0.96" vaporized=""/>
    <tripinfo id="70" depart="249.00" departLane="52o_0" departPos="5.10" departSpeed="0.00" departDelay="-0.90" arrival="339.00" arrivalLane="54i_0" arrivalPos="10.00" arrivalSpeed="19.11" duration="90.00" routeLength="596.93" waitingTime="39.00" waitingCount="1" stopTime="0.00" timeLoss="58.55" rerouteNo="0" devices="tripinfo_70" vType="DEFAULT_VEHTYPE" speedFactor="1.02" vaporized=""/>
    <tripinfo id="80" depart="285.00" departLane="52o_0" departPos="5.10" departSpeed="0.00" departDelay="-0.60" arrival="340.00" arrivalLane="54i_0" arrivalPos="10.00" arrivalSpeed="19.32" duration="55.00" routeLength="596.93" waitingTime="4.00" waitingCount="1" stopTime="0.00" timeLoss="24.64" rerouteNo="0" devices="tripinfo_80" vType="DEFAULT_VEHTYPE" speedFactor="1.03" vaporized=""/>
    <tripinfo id="87" depart="310.00" departLane="52o_0" departPos="5.10" departSpeed="0.00" departDelay="-0.59" arrival="351.00" arrivalLane="54i_0" arrivalPos="10.00" arrivalSpeed="20.00" duration="41.00" routeLength="596.93" waitingTime="0.00" waitingCount="0" stopTime="0.00" timeLoss="10.10" rerouteNo="0" devices="tripinfo_87" vType="DEFAULT_VEHTYPE" speedFactor="1.04" vaporized=""/>
    <tripinfo id="88" depart="314.00" departLane="52o_0" departPos="5.10" departSpeed="0.00" departDelay="-0.16" arrival="352.00" arrivalLane="51i_0" arrivalPos="10.00" arrivalSpeed="18.85" duration="38.00" routeLength="615.10" waitingTime="0.00" waitingCount="0" stopTime="0.00" timeLoss="5.89" rerouteNo="0" devices="tripinfo_88" vType="DEFAULT_VEHTYPE" speedFactor="1.01" vaporized=""/>
    <tripinfo id="96" depart="342.00" departLane="52o_0" departPos="5.10" departSpeed="0.00" departDelay="-0.72" arrival="379.00" arrivalLane="51i_1" arrivalPos="10.00" arrivalSpeed="19.40" duration="37.00" routeLength="615.10" waitingTime="0.00" waitingCount="0" stopTime="0.00" timeLoss="5.34" rerouteNo="0" devices="tripinfo_96" vType="DEFAULT_VEHTYPE" speedFactor="1.01" vaporized=""/>
    <tripinfo id="95" depart="339.00" departLane="52o_0" departPos="5.10" departSpeed="0.00" departDelay="-0.15" arrival="380.00" arrivalLane="54i_0" arrivalPos="10.00" arrivalSpeed="19.72" duration="41.00" routeLength="596.93" waitingTime="0.00" waitingCount="0" stopTime="0.00" timeLoss="9.98" rerouteNo="0" devices="tripinfo_95" vType="DEFAULT_VEHTYPE" speedFactor="1.06" vaporized=""/>
    <tripinfo id="97" depart="346.00" departLane="52o_0" departPos="5.10" departSpeed="0.00" departDelay="-0.29" arrival="390.00" arrivalLane="53i_0" arrivalPos="10.00" arrivalSpeed="16.73" duration="44.00" routeLength="617.75" waitingTime="0.00" waitingCount="0" stopTime="0.00" timeLoss="7.62" rerouteNo="0" devices="tripinfo_97" vType="DEFAULT_VEHTYPE" speedFactor="0.91" vaporized=""/>
    <tripinfo id="35" depart="124.00" departLane="53o_0" departPos="5.10" departSpeed="0.00" departDelay="-0.95" arrival="399.00" arrivalLane="54i_0" arrivalPos="10.00" arrivalSpeed="18.53" duration="275.00" routeLength="615.10" waitingTime="230.00" waitingCount="1" stopTime="0.00" timeLoss="243.69" rerouteNo="0" devices="tripinfo_35" vType="DEFAULT_VEHTYPE" speedFactor="1.02" vaporized=""/>
    <tripinfo id="52" depart="185.00" departLane="53o_0" departPos="5.10" departSpeed="0.00" departDelay="-0.64" arrival="400.00" arrivalLane="51i_0" arrivalPos="10.00" arrivalSpeed="18.83" duration="215.00" routeLength="617.75" waitingTime="170.00" waitingCount="1" stopTime="0.00" timeLoss="182.27" rerouteNo="0" devices="tripinfo_52" vType="DEFAULT_VEHTYPE" speedFactor="1.02" vaporized=""/>
    <tripinfo id="39" depart="139.00" departLane="53o_0" departPos="5.10" departSpeed="0.00" departDelay="-0.23" arrival="402.00" arrivalLane="52i_0" arrivalPos="10.00" arrivalSpeed="16.42" duration="263.00" routeLength="596.93" waitingTime="216.00" waitingCount="1" stopTime="0.00" timeLoss="228.19" rerouteNo="0" devices="tripinfo_39" vType="DEFAULT_VEHTYPE" speedFactor="0.90" vaporized=""/>
    <tripinfo id="51" depart="182.00" departLane="53o_0" departPos="5.10" departSpeed="0.00" departDelay="-0.07" arrival="402.00" arrivalLane="52i_1" arrivalPos="10.00" arrivalSpeed="22.68" duration="220.00" routeLength="596.93" waitingTime="176.00" waitingCount="1" stopTime="0.00" timeLoss="192.07" rerouteNo="0" devices="tripinfo_51" vType="DEFAULT_VEHTYPE" speedFactor="1.17" vaporized=""/>
    <tripinfo id="55" depart="196.00" departLane="53o_0" departPos="5.10" departSpeed="0.00" departDelay="-0.35" arrival="402.00" arrivalLane="51i_0" arrivalPos="10.00" arrivalSpeed="19.19" duration="206.00" routeLength="617.75" waitingTime="160.00" waitingCount="1" stopTime="0.00" timeLoss="172.50" rerouteNo="0" devices="tripinfo_55" vType="DEFAULT_VEHTYPE" speedFactor="1.00" vaporized=""/>
    <tripinfo id="60" depart="214.00" departLane="53o_0" departPos="5.10" departSpeed="0.00" departDelay="-0.20" arrival="404.00" arrivalLane="51i_0" arrivalPos="10.00" arrivalSpeed="19.95" duration="190.00" routeLength="617.75" waitingTime="144.00" waitingCount="1" stopTime="0.00" timeLoss="159.55" rerouteNo="0" devices="tripinfo_60" vType="DEFAULT_VEHTYPE" speedFactor="1.08" vaporized=""/>