<?xml version="1.0" encoding="UTF-8"?>

<!-- generated on Fri Nov  8 18:46:07 2019 by Eclipse SUMO Version 1.2.0
<configuration xmlns:xsi="http://www.w3.org/2001/XMLSchema-instance" xsi:noNamespaceSchemaLocation="http://sumo.dlr.de/xsd/sumoConfiguration.xsd">

    <input>
        <net-file value="simulation_files/sumocfgs/../networks/isolated_3_lanes_4_stages.net.xml"/>
        <route-files value="simulation_files/sumocfgs/../routes/isolated_3_lanes_20p.rou.xml"/>
    </input>

    <output>
        <tripinfo-output value="./output/exp21_rf_20p/veh_n_pwtl__4_tripinfo_isolated.xml"/>
    </output>

    <time>
        <begin value="0"/>
        <step-length value="1"/>
    </time>

    <report>
        <verbose value="true"/>
        <no-step-log value="true"/>
    </report>

    <gui_only>
        <tracker-interval value="1"/>
    </gui_only>

</configuration>
-->

<tripinfos xmlns:xsi="http://www.w3.org/2001/XMLSchema-instance" xsi:noNamespaceSchemaLocation="http://sumo.dlr.de/xsd/tripinfo_file.xsd">
    <tripinfo id="2" depart="7.00" departLane="52o_0" departPos="5.10" departSpeed="0.00" departDelay="-0.14" arrival="48.00" arrivalLane="54i_0" arrivalPos="10.00" arrivalSpeed="19.14" duration="41.00" routeLength="596.93" waitingTime="0.00" waitingCount="0" stopTime="0.00" timeLoss="9.18" rerouteNo="0" devices="tripinfo_2" vType="DEFAULT_VEHTYPE" speedFactor="1.01" vaporized=""/>
    <tripinfo id="6" depart="21.00" departLane="52o_0" departPos="5.10" departSpeed="0.00" departDelay="-0.42" arrival="57.00" arrivalLane="51i_0" arrivalPos="10.00" arrivalSpeed="19.72" duration="36.00" routeLength="615.10" waitingTime="0.00" waitingCount="0" stopTime="0.00" timeLoss="5.27" rerouteNo="0" devices="tripinfo_6" vType="DEFAULT_VEHTYPE" speedFactor="1.05" vaporized=""/>
    <tripinfo id="5" depart="17.00" departLane="52o_0" departPos="5.10" departSpeed="0.00" departDelay="-0.85" arrival="64.00" arrivalLane="53i_0" arrivalPos="10.00" arrivalSpeed="15.40" duration="47.00" routeLength="617.75" waitingTime="0.00" waitingCount="0" stopTime="0.00" timeLoss="6.72" rerouteNo="0" devices="tripinfo_5" vType="DEFAULT_VEHTYPE" speedFactor="0.83" vaporized=""/>
    <tripinfo id="7" depart="24.00" departLane="52o_0" departPos="5.10" departSpeed="0.00" departDelay="-0.99" arrival="66.00" arrivalLane="51i_0" arrivalPos="10.00" arrivalSpeed="16.20" duration="42.00" routeLength="615.10" waitingTime="0.00" waitingCount="0" stopTime="0.00" timeLoss="5.58" rerouteNo="0" devices="tripinfo_7" vType="DEFAULT_VEHTYPE" speedFactor="0.89" vaporized=""/>
    <tripinfo id="8" depart="28.00" departLane="52o_0" departPos="5.10" departSpeed="0.00" departDelay="-0.56" arrival="67.00" arrivalLane="51i_0" arrivalPos="10.00" arrivalSpeed="17.67" duration="39.00" routeLength="615.10" waitingTime="0.00" waitingCount="0" stopTime="0.00" timeLoss="5.05" rerouteNo="0" devices="tripinfo_8" vType="DEFAULT_VEHTYPE" speedFactor="0.94" vaporized=""/>
    <tripinfo id="11" depart="39.00" departLane="52o_0" departPos="5.10" departSpeed="0.00" departDelay="-0.27" arrival="80.00" arrivalLane="53i_0" arrivalPos="10.00" arrivalSpeed="19.90" duration="41.00" routeLength="617.75" waitingTime="0.00" waitingCount="0" stopTime="0.00" timeLoss="8.14" rerouteNo="0" devices="tripinfo_11" vType="DEFAULT_VEHTYPE" speedFactor="1.03" vaporized=""/>
    <tripinfo id="14" depart="49.00" departLane="52o_0" departPos="5.10" departSpeed="0.00" departDelay="-0.98" arrival="91.00" arrivalLane="53i_0" arrivalPos="10.00" arrivalSpeed="18.01" duration="42.00" routeLength="617.75" waitingTime="0.00" waitingCount="0" stopTime="0.00" timeLoss="8.44" rerouteNo="0" devices="tripinfo_14" vType="DEFAULT_VEHTYPE" speedFactor="0.99" vaporized=""/>
    <tripinfo id="19" depart="67.00" departLane="52o_0" departPos="5.10" departSpeed="0.00" departDelay="-0.83" arrival="101.00" arrivalLane="51i_0" arrivalPos="10.00" arrivalSpeed="22.10" duration="34.00" routeLength="615.10" waitingTime="0.00" waitingCount="0" stopTime="0.00" timeLoss="6.37" rerouteNo="0" devices="tripinfo_19" vType="DEFAULT_VEHTYPE" speedFactor="1.16" vaporized=""/>
    <tripinfo id="16" depart="57.00" departLane="52o_0" departPos="5.10" departSpeed="0.00" departDelay="-0.12" arrival="102.00" arrivalLane="53i_0" arrivalPos="10.00" arrivalSpeed="16.64" duration="45.00" routeLength="617.75" waitingTime="0.00" waitingCount="0" stopTime="0.00" timeLoss="7.54" rerouteNo="0" devices="tripinfo_16" vType="DEFAULT_VEHTYPE" speedFactor="0.88" vaporized=""/>
    <tripinfo id="18" depart="64.00" departLane="52o_0" departPos="5.10" departSpeed="0.00" departDelay="-0.26" arrival="108.00" arrivalLane="53i_0" arrivalPos="10.00" arrivalSpeed="17.02" duration="44.00" routeLength="617.75" waitingTime="0.00" waitingCount="0" stopTime="0.00" timeLoss="8.33" rerouteNo="0" devices="tripinfo_18" vType="DEFAULT_VEHTYPE" speedFactor="0.94" vaporized=""/>
    <tripinfo id="22" depart="78.00" departLane="52o_0" departPos="5.10" departSpeed="0.00" departDelay="-0.54" arrival="120.00" arrivalLane="53i_0" arrivalPos="10.00" arrivalSpeed="18.85" duration="42.00" routeLength="617.75" waitingTime="0.00" waitingCount="0" stopTime="0.00" timeLoss="8.03" rerouteNo="0" devices="tripinfo_22" vType="DEFAULT_VEHTYPE" speedFactor="0.98" vaporized=""/>
    <tripinfo id="0" depart="0.00" departLane="53o_0" departPos="5.10" departSpeed="0.00" departDelay="0.00" arrival="131.00" arrivalLane="52i_0" arrivalPos="10.00" arrivalSpeed="19.37" duration="131.00" routeLength="596.93" waitingTime="89.00" waitingCount="1" stopTime="0.00" timeLoss="101.19" rerouteNo="0" devices="tripinfo_0" vType="DEFAULT_VEHTYPE" speedFactor="1.06" vaporized=""/>
    <tripinfo id="12" depart="42.00" departLane="53o_0" departPos="5.10" departSpeed="0.00" departDelay="-0.84" arrival="133.00" arrivalLane="54i_1" arrivalPos="10.00" arrivalSpeed="19.65" duration="91.00" routeLength="615.10" waitingTime="46.00" waitingCount="1" stopTime="0.00" timeLoss="59.98" rerouteNo="0" devices="tripinfo_12" vType="DEFAULT_VEHTYPE" speedFactor="1.05" vaporized=""/>
    <tripinfo id="15" depart="53.00" departLane="53o_0" departPos="5.10" departSpeed="0.00" departDelay="-0.55" arrival="135.00" arrivalLane="54i_1" arrivalPos="10.00" arrivalSpeed="17.76" duration="82.00" routeLength="615.10" waitingTime="33.00" waitingCount="1" stopTime="0.00" timeLoss="47.06" rerouteNo="0" devices="tripinfo_15" vType="DEFAULT_VEHTYPE" speedFactor="0.93" vaporized=""/>
    <tripinfo id="17" depart="60.00" departLane="53o_0" departPos="5.10" departSpeed="0.00" departDelay="-0.69" arrival="136.00" arrivalLane="52i_0" arrivalPos="10.00" arrivalSpeed="17.17" duration="76.00" routeLength="596.93" waitingTime="29.00" waitingCount="1" stopTime="0.00" timeLoss="42.08" rerouteNo="0" devices="tripinfo_17" vType="DEFAULT_VEHTYPE" speedFactor="0.94" vaporized=""/>
    <tripinfo id="24" depart="85.00" departLane="53o_0" departPos="5.10" departSpeed="0.00" departDelay="-0.68" arrival="138.00" arrivalLane="54i_1" arrivalPos="10.00" arrivalSpeed="14.78" duration="53.00" routeLength="615.10" waitingTime="2.00" waitingCount="1" stopTime="0.00" timeLoss="14.09" rerouteNo="0" devices="tripinfo_24" vType="DEFAULT_VEHTYPE" speedFactor="0.83" vaporized=""/>
    <tripinfo id="31" depart="110.00" departLane="53o_0" departPos="5.10" departSpeed="0.00" departDelay="-0.67" arrival="149.00" arrivalLane="52i_0" arrivalPos="10.00" arrivalSpeed="21.22" duration="39.00" routeLength="596.93" waitingTime="0.00" waitingCount="0" stopTime="0.00" timeLoss="10.88" rerouteNo="0" devices="tripinfo_31" vType="DEFAULT_VEHTYPE" speedFactor="1.15" vaporized=""/>
    <tripinfo id="32" depart="114.00" departLane="53o_0" departPos="5.10" departSpeed="0.00" departDelay="-0.24" arrival="152.00" arrivalLane="54i_0" arrivalPos="10.00" arrivalSpeed="18.55" duration="38.00" routeLength="615.10" waitingTime="0.00" waitingCount="0" stopTime="0.00" timeLoss="5.73" rerouteNo="0" devices="tripinfo_32" vType="DEFAULT_VEHTYPE" speedFactor="1.01" vaporized=""/>
    <tripinfo id="34" depart="121.00" departLane="53o_0" departPos="5.10" departSpeed="0.00" departDelay="-0.38" arrival="159.00" arrivalLane="54i_0" arrivalPos="10.00" arrivalSpeed="18.44" duration="38.00" routeLength="615.10" waitingTime="0.00" waitingCount="0" stopTime="0.00" timeLoss="6.19" rerouteNo="0" devices="tripinfo_34" vType="DEFAULT_VEHTYPE" speedFactor="0.99" vaporized=""/>
    <tripinfo id="35" depart="124.00" departLane="53o_0" departPos="5.10" departSpeed="0.00" departDelay="-0.95" arrival="161.00" arrivalLane="54i_0" arrivalPos="10.00" arrivalSpeed="18.60" duration="37.00" routeLength="615.10" waitingTime="0.00" waitingCount="0" stopTime="0.00" timeLoss="5.65" rerouteNo="0" devices="tripinfo_35" vType="DEFAULT_VEHTYPE" speedFactor="1.02" vaporized=""/>
    <tripinfo id="1" depart="3.00" departLane="51o_0" departPos="5.10" departSpeed="0.00" departDelay="-0.57" arrival="183.00" arrivalLane="53i_0" arrivalPos="10.00" arrivalSpeed="17.29" duration="180.00" routeLength="596.93" waitingTime="133.00" waitingCount="1" stopTime="0.00" timeLoss="146.03" rerouteNo="0" devices="tripinfo_1" vType="DEFAULT_VEHTYPE" speedFactor="0.94" vaporized=""/>
    <tripinfo id="13" depart="46.00" departLane="51o_0" departPos="5.10" departSpeed="0.00" departDelay="-0.41" arrival="184.00" arrivalLane="53i_0" arrivalPos="10.00" arrivalSpeed="20.19" duration="138.00" routeLength="596.93" waitingTime="94.00" waitingCount="1" stopTime="0.00" timeLoss="109.68" rerouteNo="0" devices="tripinfo_13" vType="DEFAULT_VEHTYPE" speedFactor="1.12" vaporized=""/>
    <tripinfo id="9" depart="32.00" departLane="51o_0" departPos="5.10" departSpeed="0.00" departDelay="-0.13" arrival="186.00" arrivalLane="54i_0" arrivalPos="10.00" arrivalSpeed="16.26" duration="154.00" routeLength="617.75" waitingTime="103.00" waitingCount="1" stopTime="0.00" timeLoss="115.64" rerouteNo="0" devices="tripinfo_9" vType="DEFAULT_VEHTYPE" speedFactor="0.86" vaporized=""/>
    <tripinfo id="21" depart="74.00" departLane="51o_0" departPos="5.10" departSpeed="0.00" departDelay="-0.97" arrival="187.00" arrivalLane="53i_0" arrivalPos="10.00" arrivalSpeed="19.29" duration="113.00" routeLength="596.93" waitingTime="68.00" waitingCount="1" stopTime="0.00" timeLoss="81.13" rerouteNo="0" devices="tripinfo_21" vType="DEFAULT_VEHTYPE" speedFactor="1.01" vaporized=""/>
    <tripinfo id="25" depart="89.00" departLane="51o_0" departPos="5.10" departSpeed="0.00" departDelay="-0.25" arrival="189.00" arrivalLane="54i_0" arrivalPos="10.00" arrivalSpeed="16.71" duration="100.00" routeLength="617.75" waitingTime="49.00" waitingCount="1" stopTime="0.00" timeLoss="62.11" rerouteNo="0" devices="tripinfo_25" vType="DEFAULT_VEHTYPE" speedFactor="0.87" vaporized=""/>
    <tripinfo id="23" depart="82.00" departLane="51o_0" departPos="5.10" departSpeed="0.00" departDelay="-0.11" arrival="192.00" arrivalLane="53i_0" arrivalPos="10.00" arrivalSpeed="17.23" duration="110.00" routeLength="596.93" waitingTime="58.00" waitingCount="1" stopTime="0.00" timeLoss="74.24" rerouteNo="0" devices="tripinfo_23" vType="DEFAULT_VEHTYPE" speedFactor="0.89" vaporized=""/>
    <tripinfo id="26" depart="92.00" departLane="51o_0" departPos="5.10" departSpeed="0.00" departDelay="-0.82" arrival="194.00" arrivalLane="53i_0" arrivalPos="10.00" arrivalSpeed="17.41" duration="102.00" routeLength="596.93" waitingTime="49.00" waitingCount="1" stopTime="0.00" timeLoss="67.57" rerouteNo="0" devices="tripinfo_26" vType="DEFAULT_VEHTYPE" speedFactor="0.92" vaporized=""/>
    <tripinfo id="41" depart="146.00" departLane="51o_0" departPos="5.10" departSpeed="0.00" departDelay="-0.37" arrival="196.00" arrivalLane="53i_0" arrivalPos="10.00" arrivalSpeed="18.18" duration="50.00" routeLength="596.93" waitingTime="0.00" waitingCount="0" stopTime="0.00" timeLoss="15.93" rerouteNo="0" devices="tripinfo_41" vType="DEFAULT_VEHTYPE" speedFactor="0.96" vaporized=""/>
    <tripinfo id="45" depart="160.00" departLane="51o_0" departPos="5.10" departSpeed="0.00" departDelay="-0.65" arrival="196.00" arrivalLane="52i_0" arrivalPos="10.00" arrivalSpeed="20.43" duration="36.00" routeLength="615.10" waitingTime="0.00" waitingCount="0" stopTime="0.00" timeLoss="6.54" rerouteNo="0" devices="tripinfo_45" vType="DEFAULT_VEHTYPE" speedFactor="1.09" vaporized=""/>
    <tripinfo id="57" depart="203.00" departLane="51o_0" departPos="5.10" departSpeed="0.00" departDelay="-0.49" arrival="240.00" arrivalLane="53i_0" arrivalPos="10.00" arrivalSpeed="21.83" duration="37.00" routeLength="596.93" waitingTime="0.00" waitingCount="0" stopTime="0.00" timeLoss="9.40" rerouteNo="0" devices="tripinfo_57" vType="DEFAULT_VEHTYPE" speedFactor="1.14" vaporized=""/>
    <tripinfo id="59" depart="210.00" departLane="51o_0" departPos="5.10" departSpeed="0.00" departDelay="-0.63" arrival="252.00" arrivalLane="53i_0" arrivalPos="10.00" arrivalSpeed="18.19" duration="42.00" routeLength="596.93" waitingTime="0.00" waitingCount="0" stopTime="0.00" timeLoss="8.87" rerouteNo="0" devices="tripinfo_59" vType="DEFAULT_VEHTYPE" speedFactor="0.97" vaporized=""/>
    <tripinfo id="3" depart="10.00" departLane="54o_0" departPos="5.10" departSpeed="0.00" departDelay="-0.71" arrival="256.00" arrivalLane="53i_0" arrivalPos="10.00" arrivalSpeed="20.70" duration="246.00" routeLength="615.10" waitingTime="202.00" waitingCount="1" stopTime="0.00" timeLoss="215.91" rerouteNo="0" devices="tripinfo_3" vType="DEFAULT_VEHTYPE" speedFactor="1.08" vaporized=""/>
    <tripinfo id="4" depart="14.00" departLane="54o_0" departPos="5.10" departSpeed="0.00" departDelay="-0.28" arrival="257.00" arrivalLane="52i_0" arrivalPos="10.00" arrivalSpeed="19.93" duration="243.00" routeLength="617.75" waitingTime="198.00" waitingCount="1" stopTime="0.00" timeLoss="210.98" rerouteNo="0" devices="tripinfo_4" vType="DEFAULT_VEHTYPE" speedFactor="1.03" vaporized=""/>
    <tripinfo id="20" depart="71.00" departLane="54o_0" departPos="5.10" departSpeed="0.00" departDelay="-0.40" arrival="257.00" arrivalLane="53i_1" arrivalPos="10.00" arrivalSpeed="19.34" duration="186.00" routeLength="615.10" waitingTime="141.00" waitingCount="1" stopTime="0.00" timeLoss="154.31" rerouteNo="0" devices="tripinfo_20" vType="DEFAULT_VEHTYPE" speedFactor="1.02" vaporized=""/>
    <tripinfo id="28" depart="99.00" departLane="54o_0" departPos="5.10" departSpeed="0.00" departDelay="-0.96" arrival="258.00" arrivalLane="51i_0" arrivalPos="10.00" arrivalSpeed="21.37" duration="159.00" routeLength="596.93" waitingTime="115.00" waitingCount="1" stopTime="0.00" timeLoss="130.05" rerouteNo="0" devices="tripinfo_28" vType="DEFAULT_VEHTYPE" speedFactor="1.13" vaporized=""/>
    <tripinfo id="10" depart="35.00" departLane="54o_0" departPos="5.10" departSpeed="0.00" departDelay="-0.70" arrival="259.00" arrivalLane="52i_0" arrivalPos="10.00" arrivalSpeed="20.10" duration="224.00" routeLength="617.75" waitingTime="180.00" waitingCount="1" stopTime="0.00" timeLoss="193.23" rerouteNo="0" devices="tripinfo_10" vType="DEFAULT_VEHTYPE" speedFactor="1.09" vaporized=""/>
    <tripinfo id="33" depart="117.00" departLane="54o_0" departPos="5.10" departSpeed="0.00" departDelay="-0.81" arrival="259.00" arrivalLane="51i_0" arrivalPos="10.00" arrivalSpeed="22.48" duration="142.00" routeLength="596.93" waitingTime="100.00" waitingCount="1" stopTime="0.00" timeLoss="114.81" rerouteNo="0" devices="tripinfo_33" vType="DEFAULT_VEHTYPE" speedFactor="1.17" vaporized=""/>
    <tripinfo id="29" depart="103.00" departLane="54o_0" departPos="5.10" departSpeed="0.00" departDelay="-0.53" arrival="260.00" arrivalLane="53i_1" arrivalPos="10.00" arrivalSpeed="16.87" duration="157.00" routeLength="615.10" waitingTime="107.00" waitingCount="1" stopTime="0.00" timeLoss="122.78" rerouteNo="0" devices="tripinfo_29" vType="DEFAULT_VEHTYPE" speedFactor="0.93" vaporized=""/>
    <tripinfo id="44" depart="157.00" departLane="54o_0" departPos="5.10" departSpeed="0.00" departDelay="-0.08" arrival="260.00" arrivalLane="53i_2" arrivalPos="10.00" arrivalSpeed="19.15" duration="103.00" routeLength="615.10" waitingTime="58.00" waitingCount="1" stopTime="0.00" timeLoss="72.41" rerouteNo="0" devices="tripinfo_44" vType="DEFAULT_VEHTYPE" speedFactor="1.04" vaporized=""/>
    <tripinfo id="56" depart="199.00" departLane="54o_0" departPos="5.10" departSpeed="0.00" departDelay="-0.92" arrival="262.00" arrivalLane="53i_1" arrivalPos="10.00" arrivalSpeed="17.38" duration="63.00" routeLength="615.10" waitingTime="12.00" waitingCount="1" stopTime="0.00" timeLoss="27.79" rerouteNo="0" devices="tripinfo_56" vType="DEFAULT_VEHTYPE" speedFactor="0.90" vaporized=""/>
    <tripinfo id="42" depart="149.00" departLane="54o_0" departPos="5.10" departSpeed="0.00" departDelay="-0.94" arrival="263.00" arrivalLane="51i_0" arrivalPos="10.00" arrivalSpeed="20.50" duration="114.00" routeLength="596.93" waitingTime="68.00" waitingCount="1" stopTime="0.00" timeLoss="83.94" rerouteNo="0" devices="tripinfo_42" vType="DEFAULT_VEHTYPE" speedFactor="1.09" vaporized=""/>
    <tripinfo id="58" depart="207.00" departLane="54o_0" departPos="5.10" departSpeed="0.00" departDelay="-0.06" arrival="264.00" arrivalLane="53i_1" arrivalPos="10.00" arrivalSpeed="18.71" duration="57.00" routeLength="615.10" waitingTime="5.00" waitingCount="1" stopTime="0.00" timeLoss="25.59" rerouteNo="0" devices="tripinfo_58" vType="DEFAULT_VEHTYPE" speedFactor="1.02" vaporized=""/>
    <tripinfo id="47" depart="167.00" departLane="54o_0" departPos="5.10" departSpeed="0.00" departDelay="-0.79" arrival="267.00" arrivalLane="52i_0" arrivalPos="10.00" arrivalSpeed="16.96" duration="100.00" routeLength="617.75" waitingTime="47.00" waitingCount="1" stopTime="0.00" timeLoss="62.69" rerouteNo="0" devices="tripinfo_47" vType="DEFAULT_VEHTYPE" speedFactor="0.90" vaporized=""/>
    <tripinfo id="50" depart="178.00" departLane="54o_0" departPos="5.10" departSpeed="0.00" departDelay="-0.50" arrival="269.00" arrivalLane="52i_0" arrivalPos="10.00" arrivalSpeed="16.36" duration="91.00" routeLength="617.75" waitingTime="39.00" waitingCount="1" stopTime="0.00" timeLoss="52.41" rerouteNo="0" devices="tripinfo_50" vType="DEFAULT_VEHTYPE" speedFactor="0.85" vaporized=""/>
    <tripinfo id="68" depart="242.00" departLane="54o_0" departPos="5.10" departSpeed="0.00" departDelay="-0.76" arrival="282.00" arrivalLane="52i_0" arrivalPos="10.00" arrivalSpeed="19.44" duration="40.00" routeLength="617.75" waitingTime="0.00" waitingCount="0" stopTime="0.00" timeLoss="7.22" rerouteNo="0" devices="tripinfo_68" vType="DEFAULT_VEHTYPE" speedFactor="1.04" vaporized=""/>
    <tripinfo id="73" depart="260.00" departLane="54o_0" departPos="5.10" departSpeed="0.00" departDelay="-0.61" arrival="301.00" arrivalLane="52i_0" arrivalPos="10.00" arrivalSpeed="19.31" duration="41.00" routeLength="617.75" waitingTime="0.00" waitingCount="0" stopTime="0.00" timeLoss="9.75" rerouteNo="0" devices="tripinfo_73" vType="DEFAULT_VEHTYPE" speedFactor="1.06" vaporized=""/>
    <tripinfo id="75" depart="267.00" departLane="54o_0" departPos="5.10" departSpeed="0.00" departDelay="-0.75" arrival="308.00" arrivalLane="51i_0" arrivalPos="10.00" arrivalSpeed="18.21" duration="41.00" routeLength="596.93" waitingTime="0.00" waitingCount="0" stopTime="0.00" timeLoss="8.79" rerouteNo="0" devices="tripinfo_75" vType="DEFAULT_VEHTYPE" speedFactor="0.98" vaporized=""/>
    <tripinfo id="78" depart="278.00" departLane="54o_0" departPos="5.10" departSpeed="0.00" departDelay="-0.46" arrival="315.00" arrivalLane="53i_0" arrivalPos="10.00" arrivalSpeed="18.74" duration="37.00" routeLength="615.10" waitingTime="0.00" waitingCount="0" stopTime="0.00" timeLoss="5.15" rerouteNo="0" devices="tripinfo_78" vType="DEFAULT_VEHTYPE" speedFactor="1.01" vaporized=""/>
    <tripinfo id="30" depart="107.00" departLane="52o_0" departPos="5.10" departSpeed="0.00" departDelay="-0.10" arrival="328.00" arrivalLane="54i_0" arrivalPos="10.00" arrivalSpeed="21.90" duration="221.00" routeLength="596.93" waitingTime="177.00" waitingCount="1" stopTime="0.00" timeLoss="193.34" rerouteNo="0" devices="tripinfo_30" vType="DEFAULT_VEHTYPE" speedFactor="1.18" vaporized=""/>
    <tripinfo id="38" depart="135.00" departLane="52o_0" departPos="5.10" departSpeed="0.00" departDelay="-0.66" arrival="328.00" arrivalLane="53i_0" arrivalPos="10.00" arrivalSpeed="20.86" duration="193.00" routeLength="617.75" waitingTime="149.00" waitingCount="1" stopTime="0.00" timeLoss="162.85" rerouteNo="0" devices="tripinfo_38" vType="DEFAULT_VEHTYPE" speedFactor="1.10" vaporized=""/>
    <tripinfo id="46" depart="164.00" departLane="52o_0" departPos="5.10" departSpeed="0.00" departDelay="-0.22" arrival="328.00" arrivalLane="51i_1" arrivalPos="10.00" arrivalSpeed="18.52" duration="164.00" routeLength="615.10" waitingTime="118.00" waitingCount="1" stopTime="0.00" timeLoss="131.46" rerouteNo="0" devices="tripinfo_46" vType="DEFAULT_VEHTYPE" speedFactor="1.00" vaporized=""/>
    <tripinfo id="27" depart="96.00" departLane="52o_0" departPos="5.10" departSpeed="0.00" departDelay="-0.39" arrival="329.00" arrivalLane="51i_0" arrivalPos="10.00" arrivalSpeed="18.27" duration="233.00" routeLength="615.10" waitingTime="187.00" waitingCount="1" stopTime="0.00" timeLoss="199.18" rerouteNo="0" devices="tripinfo_27" vType="DEFAULT_VEHTYPE" speedFactor="0.95" vaporized=""/>
    <tripinfo id="53" depart="189.00" departLane="52o_0" departPos="5.10" departSpeed="0.00" departDelay="-0.21" arrival="331.00" arrivalLane="53i_0" arrivalPos="10.00" arrivalSpeed="20.43" duration="142.00" routeLength="617.75" waitingTime="98.00" waitingCount="1" stopTime="0.00" timeLoss="111.91" rerouteNo="0" devices="tripinfo_53" vType="DEFAULT_VEHTYPE" speedFactor="1.10" vaporized=""/>
    <tripinfo id="48" depart="171.00" departLane="52o_0" departPos="5.10" departSpeed="0.00" departDelay="-0.36" arrival="332.00" arrivalLane="51i_1" arrivalPos="10.00" arrivalSpeed="15.95" duration="161.00" routeLength="615.10" waitingTime="113.00" waitingCount="1" stopTime="0.00" timeLoss="124.11" rerouteNo="0" devices="tripinfo_48" vType="DEFAULT_VEHTYPE" speedFactor="0.88" vaporized=""/>
    <tripinfo id="36" depart="128.00" departLane="52o_0" departPos="5.10" departSpeed="0.00" departDelay="-0.52" arrival="333.00" arrivalLane="54i_0" arrivalPos="10.00" arrivalSpeed="18.58" duration="205.00" routeLength="596.93" waitingTime="158.00" waitingCount="1" stopTime="0.00" timeLoss="172.11" rerouteNo="0" devices="tripinfo_36" vType="DEFAULT_VEHTYPE" speedFactor="0.97" vaporized=""/>
    <tripinfo id="49" depart="174.00" departLane="52o_0" departPos="5.10" departSpeed="0.00" departDelay="-0.93" arrival="333.00" arrivalLane="51i_2" arrivalPos="10.00" arrivalSpeed="15.81" duration="159.00" routeLength="615.10" waitingTime="109.00" waitingCount="1" stopTime="0.00" timeLoss="120.90" rerouteNo="0" devices="tripinfo_49" vType="DEFAULT_VEHTYPE" speedFactor="0.85" vaporized=""/>
    <tripinfo id="77" depart="274.00" departLane="52o_0" departPos="5.10" departSpeed="0.00" departDelay="-0.89" arrival="333.00" arrivalLane="51i_1" arrivalPos="10.00" arrivalSpeed="17.94" duration="59.00" routeLength="615.10" waitingTime="10.00" waitingCount="1" stopTime="0.00" timeLoss="26.50" rerouteNo="0" devices="tripinfo_77" vType="DEFAULT_VEHTYPE" speedFactor="0.98" vaporized=""/>
    <tripinfo id="39" depart="139.00" departLane="53o_0" departPos="5.10" departSpeed="0.00" departDelay="-0.23" arrival="339.00" arrivalLane="52i_0" arrivalPos="10.00" arrivalSpeed="16.70" duration="200.00" routeLength="596.93" waitingTime="154.00" waitingCount="1" stopTime="0.00" timeLoss="165.07" rerouteNo="0" devices="tripinfo_39" vType="DEFAULT_VEHTYPE" speedFactor="0.90" vaporized=""/>
    <tripinfo id="52" depart="185.00" departLane="53o_0" departPos="5.10" departSpeed="0.00" departDelay="-0.64" arrival="340.00" arrivalLane="51i_0" arrivalPos="10.00" arrivalSpeed="18.73" duration="155.00" routeLength="617.75" waitingTime="109.00" waitingCount="1" stopTime="0.00" timeLoss="122.33" rerouteNo="0" devices="tripinfo_52" vType="DEFAULT_VEHTYPE" speedFactor="1.02" vaporized=""/>
    <tripinfo id="51" depart="182.00" departLane="53o_0" departPos="5.10" departSpeed="0.00" departDelay="-0.07" arrival="341.00" arrivalLane="52i_0" arrivalPos="10.00" arrivalSpeed="21.22" duration="159.00" routeLength="596.93" waitingTime="115.00" waitingCount="1" stopTime="0.00" timeLoss="130.95" rerouteNo="0" devices="tripinfo_51" vType="DEFAULT_VEHTYPE" speedFactor="1.17" vaporized=""/>
    <tripinfo id="55" depart="196.00" departLane="53o_0" departPos="5.10" departSpeed="0.00" departDelay="-0.35" arrival="342.00" arrivalLane="51i_0" arrivalPos="10.00" arrivalSpeed="19.12" duration="146.00" routeLength="617.75" waitingTime="101.00" waitingCount="1" stopTime="0.00" timeLoss="112.30" rerouteNo="0" devices="tripinfo_55" vType="DEFAULT_VEHTYPE" speedFactor="1.00" vaporized=""/>
    <tripinfo id="61" depart="217.00" departLane="53o_0" departPos="5.10" departSpeed="0.00" departDelay="-0.77" arrival="342.00" arrivalLane="52i_0" arrivalPos="10.00" arrivalSpeed="21.30" duration="125.00" routeLength="596.93" waitingTime="79.00" waitingCount="1" stopTime="0.00" timeLoss="96.82" rerouteNo="0" devices="tripinfo_61" vType="DEFAULT_VEHTYPE" speedFactor="1.12" vaporized=""/>
    <tripinfo id="60" depart="214.00" departLane="53o_0" departPos="5.10" departSpeed="0.00" departDelay="-0.20" arrival="344.00" arrivalLane="51i_0" arrivalPos="10.00" arrivalSpeed="19.93" duration="130.00" routeLength="617.75" waitingTime="83.00" waitingCount="1" stopTime="0.00" timeLoss="99.55" rerouteNo="0" devices="tripinfo_60" vType="DEFAULT_VEHTYPE" speedFactor="1.08" vaporized=""/>
    <tripinfo id="69" depart="246.00" departLane="53o_0" departPos="5.10" departSpeed="0.00" departDelay="-0.33" arrival="345.00" arrivalLane="52i_0" arrivalPos="10.00" arrivalSpeed="19.35" duration="99.00" routeLength="596.93" waitingTime="51.00" waitingCount="1" stopTime="0.00" timeLoss="67.81" rerouteNo="0" devices="tripinfo_69" vType="DEFAULT_VEHTYPE" speedFactor="1.02" vaporized=""/>
    <tripinfo id="71" depart="253.00" departLane="53o_0" departPos="5.10" departSpeed="0.00" departDelay="-0.47" arrival="347.00" arrivalLane="51i_0" arrivalPos="10.00" arrivalSpeed="18.01" duration="94.00" routeLength="617.75" waitingTime="46.00" waitingCount="1" stopTime="0.00" timeLoss="60.01" rerouteNo="0" devices="tripinfo_71" vType="DEFAULT_VEHTYPE" speedFactor="0.97" vaporized=""/>
    <tripinfo id="82" depart="292.00" departLane="53o_0" departPos="5.10" departSpeed="0.00" departDelay="-0.74" arrival="348.00" arrivalLane="52i_0" arrivalPos="10.00" arrivalSpeed="19.72" duration="56.00" routeLength="596.93" waitingTime="8.00" waitingCount="1" stopTime="0.00" timeLoss="24.89" rerouteNo="0" devices="tripinfo_82" vType="DEFAULT_VEHTYPE" speedFactor="1.02" vaporized=""/>
    <tripinfo id="90" depart="321.00" departLane="53o_0" departPos="5.10" departSpeed="0.00" departDelay="-0.30" arrival="363.00" arrivalLane="51i_0" arrivalPos="10.00" arrivalSpeed="18.67" duration="42.00" routeLength="617.75" waitingTime="0.00" waitingCount="0" stopTime="0.00" timeLoss="9.04" rerouteNo="0" devices="tripinfo_90" vType="DEFAULT_VEHTYPE" speedFactor="1.02" vaporized=""/>
    <tripinfo id="98" depart="349.00" departLane="53o_0" departPos="5.10" departSpeed="0.00" departDelay="-0.86" arrival="386.00" arrivalLane="51i_0" arrivalPos="10.00" arrivalSpeed="21.47" duration="37.00" routeLength="617.75" waitingTime="0.00" waitingCount="0" stopTime="0.00" timeLoss="7.78" rerouteNo="0" devices="tripinfo_98" vType="DEFAULT_VEHTYPE" speedFactor="1.12" vaporized=""/>
    <tripinfo id="101" depart="360.00" departLane="53o_0" departPos="5.10" departSpeed="0.00" departDelay="-0.57" arrival="402.00" arrivalLane="52i_0" arrivalPos="10.00" arrivalSpeed="17.52" duration="42.00" routeLength="596.93" waitingTime="0.00" waitingCount="0" stopTime="0.00" timeLoss="8.45" rerouteNo="0" devices="tripinfo_101" vType="DEFAULT_VEHTYPE" speedFactor="0.96" vaporized=""/>
    <tripinfo id="105" depart="374.00" departLane="53o_0" departPos="5.10" departSpeed="0.00" departDelay="-0.85" arrival="413.00" arrivalLane="52i_0" arrivalPos="10.00" arrivalSpeed="20.23" duration="39.00" routeLength="596.93" waitingTime="0.00" waitingCount="0" stopTime="0.00" timeLoss="9.00" rerouteNo="0" devices="tripinfo_105" vType="DEFAULT_VEHTYPE" speedFactor="1.07" vaporized=""/>
    <tripinfo id="107" depart="381.00" departLane="53o_0" departPos="5.10" departSpeed="0.00" departDelay="-0.99" arrival="421.00" arrivalLane="51i_0" arrivalPos="10.00" arrivalSpeed="18.84" duration="40.00" routeLength="617.75" waitingTime="0.00" waitingCount="0" stopTime="0.00" timeLoss="7.69" rerouteNo="0" devices="tripinfo_107" vType="DEFAULT_VEHTYPE" speedFactor="1.03" vaporized=""/>
    <tripinfo id="109" depart="389.00" departLane="53o_0" departPos="5.10" departSpeed="0.00" departDelay="-0.13" arrival="431.00" arrivalLane="52i_0" arrivalPos="10.00" arrivalSpeed="17.99" duration="42.00" routeLength="596.93" waitingTime="0.00" waitingCount="0" stopTime="0.00" timeLoss="8.54" rerouteNo="0" devices="tripinfo_109" vType="DEFAULT_VEHTYPE" speedFactor="0.96" vaporized=""/>
    <tripinfo id="110" depart="392.00" departLane="53o_0" departPos="5.10" departSpeed="0.00" departDelay="-0.70" arrival="432.00" arrivalLane="54i_1" arrivalPos="10.00" arrivalSpeed="17.49" duration="40.00" routeLength="615.10" waitingTime="0.00" waitingCount="0" stopTime="0.00" timeLoss="5.56" rerouteNo="0" devices="tripinfo_110" vType="DEFAULT_VEHTYPE" speedFactor="0.93" vaporized=""/>
    <tripinfo id="111" depart="396.00" departLane="53o_0" departPos="5.10" departSpeed="0.00" departDelay="-0.27" arrival="440.00" arrivalLane="52i_0" arrivalPos="10.00" arrivalSpeed="16.54" duration="44.00" routeLength="596.93" waitingTime="0.00" waitingCount="0" stopTime="0.00" timeLoss="7.78" rerouteNo="0" devices="tripinfo_111" vType="DEFAULT_VEHTYPE" speedFactor="0.87" vaporized=""/>