<?xml version="1.0" encoding="UTF-8"?>

<!-- generated on Fri Nov  8 18:49:07 2019 by Eclipse SUMO Version 1.2.0
<configuration xmlns:xsi="http://www.w3.org/2001/XMLSchema-instance" xsi:noNamespaceSchemaLocation="http://sumo.dlr.de/xsd/sumoConfiguration.xsd">

    <input>
        <net-file value="simulation_files/sumocfgs/../networks/isolated_3_lanes_4_stages.net.xml"/>
        <route-files value="simulation_files/sumocfgs/../routes/isolated_3_lanes_20p.rou.xml"/>
    </input>

    <output>
        <tripinfo-output value="./output/exp21_rf_20p/veh_n_pwtl__6_tripinfo_isolated.xml"/>
    </output>

    <time>
        <begin value="0"/>
        <step-length value="1"/>
    </time>

    <report>
        <verbose value="true"/>
        <no-step-log value="true"/>
    </report>

    <gui_only>
        <tracker-interval value="1"/>
    </gui_only>

</configuration>
-->

<tripinfos xmlns:xsi="http://www.w3.org/2001/XMLSchema-instance" xsi:noNamespaceSchemaLocation="http://sumo.dlr.de/xsd/tripinfo_file.xsd">
    <tripinfo id="2" depart="7.00" departLane="52o_0" departPos="5.10" departSpeed="0.00" departDelay="-0.14" arrival="48.00" arrivalLane="54i_0" arrivalPos="10.00" arrivalSpeed="19.14" duration="41.00" routeLength="596.93" waitingTime="0.00" waitingCount="0" stopTime="0.00" timeLoss="9.18" rerouteNo="0" devices="tripinfo_2" vType="DEFAULT_VEHTYPE" speedFactor="1.01" vaporized=""/>
    <tripinfo id="6" depart="21.00" departLane="52o_0" departPos="5.10" departSpeed="0.00" departDelay="-0.42" arrival="57.00" arrivalLane="51i_0" arrivalPos="10.00" arrivalSpeed="19.72" duration="36.00" routeLength="615.10" waitingTime="0.00" waitingCount="0" stopTime="0.00" timeLoss="5.27" rerouteNo="0" devices="tripinfo_6" vType="DEFAULT_VEHTYPE" speedFactor="1.05" vaporized=""/>
    <tripinfo id="5" depart="17.00" departLane="52o_0" departPos="5.10" departSpeed="0.00" departDelay="-0.85" arrival="64.00" arrivalLane="53i_0" arrivalPos="10.00" arrivalSpeed="15.40" duration="47.00" routeLength="617.75" waitingTime="0.00" waitingCount="0" stopTime="0.00" timeLoss="6.72" rerouteNo="0" devices="tripinfo_5" vType="DEFAULT_VEHTYPE" speedFactor="0.83" vaporized=""/>
    <tripinfo id="7" depart="24.00" departLane="52o_0" departPos="5.10" departSpeed="0.00" departDelay="-0.99" arrival="66.00" arrivalLane="51i_0" arrivalPos="10.00" arrivalSpeed="16.20" duration="42.00" routeLength="615.10" waitingTime="0.00" waitingCount="0" stopTime="0.00" timeLoss="5.58" rerouteNo="0" devices="tripinfo_7" vType="DEFAULT_VEHTYPE" speedFactor="0.89" vaporized=""/>
    <tripinfo id="8" depart="28.00" departLane="52o_0" departPos="5.10" departSpeed="0.00" departDelay="-0.56" arrival="67.00" arrivalLane="51i_0" arrivalPos="10.00" arrivalSpeed="17.67" duration="39.00" routeLength="615.10" waitingTime="0.00" waitingCount="0" stopTime="0.00" timeLoss="5.05" rerouteNo="0" devices="tripinfo_8" vType="DEFAULT_VEHTYPE" speedFactor="0.94" vaporized=""/>
    <tripinfo id="11" depart="39.00" departLane="52o_0" departPos="5.10" departSpeed="0.00" departDelay="-0.27" arrival="80.00" arrivalLane="53i_0" arrivalPos="10.00" arrivalSpeed="19.90" duration="41.00" routeLength="617.75" waitingTime="0.00" waitingCount="0" stopTime="0.00" timeLoss="8.14" rerouteNo="0" devices="tripinfo_11" vType="DEFAULT_VEHTYPE" speedFactor="1.03" vaporized=""/>
    <tripinfo id="14" depart="49.00" departLane="52o_0" departPos="5.10" departSpeed="0.00" departDelay="-0.98" arrival="91.00" arrivalLane="53i_0" arrivalPos="10.00" arrivalSpeed="18.01" duration="42.00" routeLength="617.75" waitingTime="0.00" waitingCount="0" stopTime="0.00" timeLoss="8.44" rerouteNo="0" devices="tripinfo_14" vType="DEFAULT_VEHTYPE" speedFactor="0.99" vaporized=""/>
    <tripinfo id="19" depart="67.00" departLane="52o_0" departPos="5.10" departSpeed="0.00" departDelay="-0.83" arrival="101.00" arrivalLane="51i_0" arrivalPos="10.00" arrivalSpeed="22.10" duration="34.00" routeLength="615.10" waitingTime="0.00" waitingCount="0" stopTime="0.00" timeLoss="6.37" rerouteNo="0" devices="tripinfo_19" vType="DEFAULT_VEHTYPE" speedFactor="1.16" vaporized=""/>
    <tripinfo id="16" depart="57.00" departLane="52o_0" departPos="5.10" departSpeed="0.00" departDelay="-0.12" arrival="102.00" arrivalLane="53i_0" arrivalPos="10.00" arrivalSpeed="16.64" duration="45.00" routeLength="617.75" waitingTime="0.00" waitingCount="0" stopTime="0.00" timeLoss="7.54" rerouteNo="0" devices="tripinfo_16" vType="DEFAULT_VEHTYPE" speedFactor="0.88" vaporized=""/>
    <tripinfo id="18" depart="64.00" departLane="52o_0" departPos="5.10" departSpeed="0.00" departDelay="-0.26" arrival="108.00" arrivalLane="53i_0" arrivalPos="10.00" arrivalSpeed="17.02" duration="44.00" routeLength="617.75" waitingTime="0.00" waitingCount="0" stopTime="0.00" timeLoss="8.33" rerouteNo="0" devices="tripinfo_18" vType="DEFAULT_VEHTYPE" speedFactor="0.94" vaporized=""/>
    <tripinfo id="22" depart="78.00" departLane="52o_0" departPos="5.10" departSpeed="0.00" departDelay="-0.54" arrival="120.00" arrivalLane="53i_0" arrivalPos="10.00" arrivalSpeed="18.85" duration="42.00" routeLength="617.75" waitingTime="0.00" waitingCount="0" stopTime="0.00" timeLoss="8.03" rerouteNo="0" devices="tripinfo_22" vType="DEFAULT_VEHTYPE" speedFactor="0.98" vaporized=""/>
    <tripinfo id="27" depart="96.00" departLane="52o_0" departPos="5.10" departSpeed="0.00" departDelay="-0.39" arrival="135.00" arrivalLane="51i_0" arrivalPos="10.00" arrivalSpeed="18.22" duration="39.00" routeLength="615.10" waitingTime="0.00" waitingCount="0" stopTime="0.00" timeLoss="5.01" rerouteNo="0" devices="tripinfo_27" vType="DEFAULT_VEHTYPE" speedFactor="0.95" vaporized=""/>
    <tripinfo id="0" depart="0.00" departLane="53o_0" departPos="5.10" departSpeed="0.00" departDelay="0.00" arrival="147.00" arrivalLane="52i_0" arrivalPos="10.00" arrivalSpeed="19.38" duration="147.00" routeLength="596.93" waitingTime="104.00" waitingCount="1" stopTime="0.00" timeLoss="116.92" rerouteNo="0" devices="tripinfo_0" vType="DEFAULT_VEHTYPE" speedFactor="1.06" vaporized=""/>
    <tripinfo id="12" depart="42.00" departLane="53o_0" departPos="5.10" departSpeed="0.00" departDelay="-0.84" arrival="149.00" arrivalLane="54i_1" arrivalPos="10.00" arrivalSpeed="17.50" duration="107.00" routeLength="615.10" waitingTime="61.00" waitingCount="1" stopTime="0.00" timeLoss="76.66" rerouteNo="0" devices="tripinfo_12" vType="DEFAULT_VEHTYPE" speedFactor="1.05" vaporized=""/>
    <tripinfo id="15" depart="53.00" departLane="53o_0" departPos="5.10" departSpeed="0.00" departDelay="-0.55" arrival="149.00" arrivalLane="54i_2" arrivalPos="10.00" arrivalSpeed="16.85" duration="96.00" routeLength="615.10" waitingTime="48.00" waitingCount="1" stopTime="0.00" timeLoss="61.54" rerouteNo="0" devices="tripinfo_15" vType="DEFAULT_VEHTYPE" speedFactor="0.93" vaporized=""/>
    <tripinfo id="17" depart="60.00" departLane="53o_0" departPos="5.10" departSpeed="0.00" departDelay="-0.69" arrival="151.00" arrivalLane="52i_0" arrivalPos="10.00" arrivalSpeed="18.13" duration="91.00" routeLength="596.93" waitingTime="44.00" waitingCount="1" stopTime="0.00" timeLoss="56.95" rerouteNo="0" devices="tripinfo_17" vType="DEFAULT_VEHTYPE" speedFactor="0.94" vaporized=""/>
    <tripinfo id="32" depart="114.00" departLane="53o_0" departPos="5.10" departSpeed="0.00" departDelay="-0.24" arrival="152.00" arrivalLane="54i_2" arrivalPos="10.00" arrivalSpeed="19.07" duration="38.00" routeLength="615.10" waitingTime="0.00" waitingCount="0" stopTime="0.00" timeLoss="5.93" rerouteNo="0" devices="tripinfo_32" vType="DEFAULT_VEHTYPE" speedFactor="1.01" vaporized=""/>
    <tripinfo id="24" depart="85.00" departLane="53o_0" departPos="5.10" departSpeed="0.00" departDelay="-0.68" arrival="153.00" arrivalLane="54i_1" arrivalPos="10.00" arrivalSpeed="15.34" duration="68.00" routeLength="615.10" waitingTime="17.00" waitingCount="1" stopTime="0.00" timeLoss="29.28" rerouteNo="0" devices="tripinfo_24" vType="DEFAULT_VEHTYPE" speedFactor="0.83" vaporized=""/>
    <tripinfo id="31" depart="110.00" departLane="53o_0" departPos="5.10" departSpeed="0.00" departDelay="-0.67" arrival="153.00" arrivalLane="52i_0" arrivalPos="10.00" arrivalSpeed="21.17" duration="43.00" routeLength="596.93" waitingTime="0.00" waitingCount="0" stopTime="0.00" timeLoss="14.57" rerouteNo="0" devices="tripinfo_31" vType="DEFAULT_VEHTYPE" speedFactor="1.15" vaporized=""/>
    <tripinfo id="34" depart="121.00" departLane="53o_0" departPos="5.10" departSpeed="0.00" departDelay="-0.38" arrival="159.00" arrivalLane="54i_0" arrivalPos="10.00" arrivalSpeed="18.35" duration="38.00" routeLength="615.10" waitingTime="0.00" waitingCount="0" stopTime="0.00" timeLoss="5.27" rerouteNo="0" devices="tripinfo_34" vType="DEFAULT_VEHTYPE" speedFactor="0.99" vaporized=""/>
    <tripinfo id="35" depart="124.00" departLane="53o_0" departPos="5.10" departSpeed="0.00" departDelay="-0.95" arrival="161.00" arrivalLane="54i_0" arrivalPos="10.00" arrivalSpeed="19.02" duration="37.00" routeLength="615.10" waitingTime="0.00" waitingCount="0" stopTime="0.00" timeLoss="5.93" rerouteNo="0" devices="tripinfo_35" vType="DEFAULT_VEHTYPE" speedFactor="1.02" vaporized=""/>
    <tripinfo id="39" depart="139.00" departLane="53o_0" departPos="5.10" departSpeed="0.00" departDelay="-0.23" arrival="182.00" arrivalLane="52i_0" arrivalPos="10.00" arrivalSpeed="16.35" duration="43.00" routeLength="596.93" waitingTime="0.00" waitingCount="0" stopTime="0.00" timeLoss="7.81" rerouteNo="0" devices="tripinfo_39" vType="DEFAULT_VEHTYPE" speedFactor="0.90" vaporized=""/>
    <tripinfo id="51" depart="182.00" departLane="53o_0" departPos="5.10" departSpeed="0.00" departDelay="-0.07" arrival="219.00" arrivalLane="52i_0" arrivalPos="10.00" arrivalSpeed="22.19" duration="37.00" routeLength="596.93" waitingTime="0.00" waitingCount="0" stopTime="0.00" timeLoss="10.04" rerouteNo="0" devices="tripinfo_51" vType="DEFAULT_VEHTYPE" speedFactor="1.17" vaporized=""/>
    <tripinfo id="52" depart="185.00" departLane="53o_0" departPos="5.10" departSpeed="0.00" departDelay="-0.64" arrival="226.00" arrivalLane="51i_0" arrivalPos="10.00" arrivalSpeed="18.49" duration="41.00" routeLength="617.75" waitingTime="0.00" waitingCount="0" stopTime="0.00" timeLoss="7.75" rerouteNo="0" devices="tripinfo_52" vType="DEFAULT_VEHTYPE" speedFactor="1.02" vaporized=""/>
    <tripinfo id="45" depart="160.00" departLane="51o_0" departPos="5.10" departSpeed="0.00" departDelay="-0.65" arrival="233.00" arrivalLane="52i_1" arrivalPos="10.00" arrivalSpeed="21.11" duration="73.00" routeLength="615.10" waitingTime="29.00" waitingCount="1" stopTime="0.00" timeLoss="43.37" rerouteNo="0" devices="tripinfo_45" vType="DEFAULT_VEHTYPE" speedFactor="1.09" vaporized=""/>
    <tripinfo id="1" depart="3.00" departLane="51o_0" departPos="5.10" departSpeed="0.00" departDelay="-0.57" arrival="234.00" arrivalLane="53i_0" arrivalPos="10.00" arrivalSpeed="17.29" duration="231.00" routeLength="596.93" waitingTime="184.00" waitingCount="1" stopTime="0.00" timeLoss="197.16" rerouteNo="0" devices="tripinfo_1" vType="DEFAULT_VEHTYPE" speedFactor="0.94" vaporized=""/>
    <tripinfo id="13" depart="46.00" departLane="51o_0" departPos="5.10" departSpeed="0.00" departDelay="-0.41" arrival="235.00" arrivalLane="53i_0" arrivalPos="10.00" arrivalSpeed="19.94" duration="189.00" routeLength="596.93" waitingTime="145.00" waitingCount="1" stopTime="0.00" timeLoss="161.14" rerouteNo="0" devices="tripinfo_13" vType="DEFAULT_VEHTYPE" speedFactor="1.12" vaporized=""/>
    <tripinfo id="9" depart="32.00" departLane="51o_0" departPos="5.10" departSpeed="0.00" departDelay="-0.13" arrival="238.00" arrivalLane="54i_0" arrivalPos="10.00" arrivalSpeed="16.41" duration="206.00" routeLength="617.75" waitingTime="154.00" waitingCount="1" stopTime="0.00" timeLoss="166.97" rerouteNo="0" devices="tripinfo_9" vType="DEFAULT_VEHTYPE" speedFactor="0.86" vaporized=""/>
    <tripinfo id="21" depart="74.00" departLane="51o_0" departPos="5.10" departSpeed="0.00" departDelay="-0.97" arrival="239.00" arrivalLane="53i_0" arrivalPos="10.00" arrivalSpeed="18.96" duration="165.00" routeLength="596.93" waitingTime="119.00" waitingCount="1" stopTime="0.00" timeLoss="133.04" rerouteNo="0" devices="tripinfo_21" vType="DEFAULT_VEHTYPE" speedFactor="1.01" vaporized=""/>
    <tripinfo id="25" depart="89.00" departLane="51o_0" departPos="5.10" departSpeed="0.00" departDelay="-0.25" arrival="239.00" arrivalLane="54i_0" arrivalPos="10.00" arrivalSpeed="15.81" duration="150.00" routeLength="617.75" waitingTime="100.00" waitingCount="1" stopTime="0.00" timeLoss="112.25" rerouteNo="0" devices="tripinfo_25" vType="DEFAULT_VEHTYPE" speedFactor="0.87" vaporized=""/>
    <tripinfo id="23" depart="82.00" departLane="51o_0" departPos="5.10" departSpeed="0.00" departDelay="-0.11" arrival="244.00" arrivalLane="53i_0" arrivalPos="10.00" arrivalSpeed="16.87" duration="162.00" routeLength="596.93" waitingTime="109.00" waitingCount="1" stopTime="0.00" timeLoss="125.86" rerouteNo="0" devices="tripinfo_23" vType="DEFAULT_VEHTYPE" speedFactor="0.89" vaporized=""/>
    <tripinfo id="26" depart="92.00" departLane="51o_0" departPos="5.10" departSpeed="0.00" departDelay="-0.82" arrival="245.00" arrivalLane="53i_0" arrivalPos="10.00" arrivalSpeed="17.40" duration="153.00" routeLength="596.93" waitingTime="100.00" waitingCount="1" stopTime="0.00" timeLoss="118.40" rerouteNo="0" devices="tripinfo_26" vType="DEFAULT_VEHTYPE" speedFactor="0.92" vaporized=""/>
    <tripinfo id="41" depart="146.00" departLane="51o_0" departPos="5.10" departSpeed="0.00" departDelay="-0.37" arrival="247.00" arrivalLane="53i_0" arrivalPos="10.00" arrivalSpeed="17.86" duration="101.00" routeLength="596.93" waitingTime="50.00" waitingCount="1" stopTime="0.00" timeLoss="67.58" rerouteNo="0" devices="tripinfo_41" vType="DEFAULT_VEHTYPE" speedFactor="0.96" vaporized=""/>
    <tripinfo id="57" depart="203.00" departLane="51o_0" departPos="5.10" departSpeed="0.00" departDelay="-0.49" arrival="249.00" arrivalLane="53i_0" arrivalPos="10.00" arrivalSpeed="21.55" duration="46.00" routeLength="596.93" waitingTime="0.00" waitingCount="0" stopTime="0.00" timeLoss="17.84" rerouteNo="0" devices="tripinfo_57" vType="DEFAULT_VEHTYPE" speedFactor="1.14" vaporized=""/>
    <tripinfo id="59" depart="210.00" departLane="51o_0" departPos="5.10" departSpeed="0.00" departDelay="-0.63" arrival="253.00" arrivalLane="53i_0" arrivalPos="10.00" arrivalSpeed="18.50" duration="43.00" routeLength="596.93" waitingTime="0.00" waitingCount="0" stopTime="0.00" timeLoss="9.91" rerouteNo="0" devices="tripinfo_59" vType="DEFAULT_VEHTYPE" speedFactor="0.97" vaporized=""/>
    <tripinfo id="63" depart="224.00" departLane="51o_0" departPos="5.10" departSpeed="0.00" departDelay="-0.91" arrival="266.00" arrivalLane="54i_0" arrivalPos="10.00" arrivalSpeed="18.85" duration="42.00" routeLength="617.75" waitingTime="0.00" waitingCount="0" stopTime="0.00" timeLoss="7.86" rerouteNo="0" devices="tripinfo_63" vType="DEFAULT_VEHTYPE" speedFactor="0.99" vaporized=""/>
    <tripinfo id="64" depart="228.00" departLane="51o_0" departPos="5.10" departSpeed="0.00" departDelay="-0.48" arrival="271.00" arrivalLane="53i_0" arrivalPos="10.00" arrivalSpeed="17.20" duration="43.00" routeLength="596.93" waitingTime="0.00" waitingCount="0" stopTime="0.00" timeLoss="9.33" rerouteNo="0" devices="tripinfo_64" vType="DEFAULT_VEHTYPE" speedFactor="0.94" vaporized=""/>
    <tripinfo id="66" depart="235.00" departLane="51o_0" departPos="5.10" departSpeed="0.00" departDelay="-0.62" arrival="275.00" arrivalLane="52i_0" arrivalPos="10.00" arrivalSpeed="16.63" duration="40.00" routeLength="615.10" waitingTime="0.00" waitingCount="0" stopTime="0.00" timeLoss="5.02" rerouteNo="0" devices="tripinfo_66" vType="DEFAULT_VEHTYPE" speedFactor="0.91" vaporized=""/>
    <tripinfo id="65" depart="232.00" departLane="51o_0" departPos="5.10" departSpeed="0.00" departDelay="-0.05" arrival="276.00" arrivalLane="54i_0" arrivalPos="10.00" arrivalSpeed="16.38" duration="44.00" routeLength="617.75" waitingTime="0.00" waitingCount="0" stopTime="0.00" timeLoss="6.51" rerouteNo="0" devices="tripinfo_65" vType="DEFAULT_VEHTYPE" speedFactor="0.88" vaporized=""/>
    <tripinfo id="3" depart="10.00" departLane="54o_0" departPos="5.10" departSpeed="0.00" departDelay="-0.71" arrival="284.00" arrivalLane="53i_0" arrivalPos="10.00" arrivalSpeed="19.13" duration="274.00" routeLength="615.10" waitingTime="229.00" waitingCount="1" stopTime="0.00" timeLoss="244.21" rerouteNo="0" devices="tripinfo_3" vType="DEFAULT_VEHTYPE" speedFactor="1.08" vaporized=""/>
    <tripinfo id="4" depart="14.00" departLane="54o_0" departPos="5.10" departSpeed="0.00" departDelay="-0.28" arrival="284.00" arrivalLane="52i_0" arrivalPos="10.00" arrivalSpeed="18.95" duration="270.00" routeLength="617.75" waitingTime="225.00" waitingCount="1" stopTime="0.00" timeLoss="237.71" rerouteNo="0" devices="tripinfo_4" vType="DEFAULT_VEHTYPE" speedFactor="1.03" vaporized=""/>
    <tripinfo id="20" depart="71.00" departLane="54o_0" departPos="5.10" departSpeed="0.00" departDelay="-0.40" arrival="284.00" arrivalLane="53i_1" arrivalPos="10.00" arrivalSpeed="19.34" duration="213.00" routeLength="615.10" waitingTime="168.00" waitingCount="1" stopTime="0.00" timeLoss="180.98" rerouteNo="0" devices="tripinfo_20" vType="DEFAULT_VEHTYPE" speedFactor="1.02" vaporized=""/>
    <tripinfo id="28" depart="99.00" departLane="54o_0" departPos="5.10" departSpeed="0.00" departDelay="-0.96" arrival="285.00" arrivalLane="51i_0" arrivalPos="10.00" arrivalSpeed="21.92" duration="186.00" routeLength="596.93" waitingTime="142.00" waitingCount="1" stopTime="0.00" timeLoss="157.38" rerouteNo="0" devices="tripinfo_28" vType="DEFAULT_VEHTYPE" speedFactor="1.13" vaporized=""/>
    <tripinfo id="10" depart="35.00" departLane="54o_0" departPos="5.10" departSpeed="0.00" departDelay="-0.70" arrival="286.00" arrivalLane="52i_0" arrivalPos="10.00" arrivalSpeed="20.58" duration="251.00" routeLength="617.75" waitingTime="207.00" waitingCount="1" stopTime="0.00" timeLoss="219.90" rerouteNo="0" devices="tripinfo_10" vType="DEFAULT_VEHTYPE" speedFactor="1.09" vaporized=""/>
    <tripinfo id="33" depart="117.00" departLane="54o_0" departPos="5.10" departSpeed="0.00" departDelay="-0.81" arrival="286.00" arrivalLane="51i_0" arrivalPos="10.00" arrivalSpeed="22.76" duration="169.00" routeLength="596.93" waitingTime="127.00" waitingCount="1" stopTime="0.00" timeLoss="142.10" rerouteNo="0" devices="tripinfo_33" vType="DEFAULT_VEHTYPE" speedFactor="1.17" vaporized=""/>
    <tripinfo id="29" depart="103.00" departLane="54o_0" departPos="5.10" departSpeed="0.00" departDelay="-0.53" arrival="287.00" arrivalLane="53i_1" arrivalPos="10.00" arrivalSpeed="16.82" duration="184.00" routeLength="615.10" waitingTime="134.00" waitingCount="1" stopTime="0.00" timeLoss="149.71" rerouteNo="0" devices="tripinfo_29" vType="DEFAULT_VEHTYPE" speedFactor="0.93" vaporized=""/>
    <tripinfo id="44" depart="157.00" departLane="54o_0" departPos="5.10" departSpeed="0.00" departDelay="-0.08" arrival="287.00" arrivalLane="53i_2" arrivalPos="10.00" arrivalSpeed="20.05" duration="130.00" routeLength="615.10" waitingTime="85.00" waitingCount="1" stopTime="0.00" timeLoss="99.07" rerouteNo="0" devices="tripinfo_44" vType="DEFAULT_VEHTYPE" speedFactor="1.04" vaporized=""/>
    <tripinfo id="56" depart="199.00" departLane="54o_0" departPos="5.10" departSpeed="0.00" departDelay="-0.92" arrival="289.00" arrivalLane="53i_1" arrivalPos="10.00" arrivalSpeed="16.59" duration="90.00" routeLength="615.10" waitingTime="39.00" waitingCount="1" stopTime="0.00" timeLoss="54.72" rerouteNo="0" devices="tripinfo_56" vType="DEFAULT_VEHTYPE" speedFactor="0.90" vaporized=""/>
    <tripinfo id="42" depart="149.00" departLane="54o_0" departPos="5.10" departSpeed="0.00" departDelay="-0.94" arrival="290.00" arrivalLane="51i_0" arrivalPos="10.00" arrivalSpeed="20.50" duration="141.00" routeLength="596.93" waitingTime="95.00" waitingCount="1" stopTime="0.00" timeLoss="110.95" rerouteNo="0" devices="tripinfo_42" vType="DEFAULT_VEHTYPE" speedFactor="1.09" vaporized=""/>
    <tripinfo id="58" depart="207.00" departLane="54o_0" departPos="5.10" departSpeed="0.00" departDelay="-0.06" arrival="291.00" arrivalLane="53i_1" arrivalPos="10.00" arrivalSpeed="18.71" duration="84.00" routeLength="615.10" waitingTime="31.00" waitingCount="1" stopTime="0.00" timeLoss="52.40" rerouteNo="0" devices="tripinfo_58" vType="DEFAULT_VEHTYPE" speedFactor="1.02" vaporized=""/>
    <tripinfo id="47" depart="167.00" departLane="54o_0" departPos="5.10" departSpeed="0.00" departDelay="-0.79" arrival="293.00" arrivalLane="52i_0" arrivalPos="10.00" arrivalSpeed="16.98" duration="126.00" routeLength="617.75" waitingTime="74.00" waitingCount="1" stopTime="0.00" timeLoss="89.54" rerouteNo="0" devices="tripinfo_47" vType="DEFAULT_VEHTYPE" speedFactor="0.90" vaporized=""/>
    <tripinfo id="50" depart="178.00" departLane="54o_0" departPos="5.10" departSpeed="0.00" departDelay="-0.50" arrival="296.00" arrivalLane="52i_0" arrivalPos="10.00" arrivalSpeed="15.55" duration="118.00" routeLength="617.75" waitingTime="66.00" waitingCount="1" stopTime="0.00" timeLoss="79.33" rerouteNo="0" devices="tripinfo_50" vType="DEFAULT_VEHTYPE" speedFactor="0.85" vaporized=""/>
    <tripinfo id="68" depart="242.00" departLane="54o_0" departPos="5.10" departSpeed="0.00" departDelay="-0.76" arrival="298.00" arrivalLane="52i_0" arrivalPos="10.00" arrivalSpeed="19.55" duration="56.00" routeLength="617.75" waitingTime="5.00" waitingCount="1" stopTime="0.00" timeLoss="23.68" rerouteNo="0" devices="tripinfo_68" vType="DEFAULT_VEHTYPE" speedFactor="1.04" vaporized=""/>
    <tripinfo id="73" depart="260.00" departLane="54o_0" departPos="5.10" departSpeed="0.00" departDelay="-0.61" arrival="301.00" arrivalLane="52i_0" arrivalPos="10.00" arrivalSpeed="20.20" duration="41.00" routeLength="617.75" waitingTime="0.00" waitingCount="0" stopTime="0.00" timeLoss="9.53" rerouteNo="0" devices="tripinfo_73" vType="DEFAULT_VEHTYPE" speedFactor="1.06" vaporized=""/>
    <tripinfo id="75" depart="267.00" departLane="54o_0" departPos="5.10" departSpeed="0.00" departDelay="-0.75" arrival="308.00" arrivalLane="51i_0" arrivalPos="10.00" arrivalSpeed="18.65" duration="41.00" routeLength="596.93" waitingTime="0.00" waitingCount="0" stopTime="0.00" timeLoss="9.00" rerouteNo="0" devices="tripinfo_75" vType="DEFAULT_VEHTYPE" speedFactor="0.98" vaporized=""/>
    <tripinfo id="78" depart="278.00" departLane="54o_0" departPos="5.10" departSpeed="0.00" departDelay="-0.46" arrival="315.00" arrivalLane="53i_0" arrivalPos="10.00" arrivalSpeed="18.83" duration="37.00" routeLength="615.10" waitingTime="0.00" waitingCount="0" stopTime="0.00" timeLoss="5.10" rerouteNo="0" devices="tripinfo_78" vType="DEFAULT_VEHTYPE" speedFactor="1.01" vaporized=""/>
    <tripinfo id="79" depart="282.00" departLane="54o_0" departPos="5.10" departSpeed="0.00" departDelay="-0.03" arrival="321.00" arrivalLane="51i_0" arrivalPos="10.00" arrivalSpeed="20.37" duration="39.00" routeLength="596.93" waitingTime="0.00" waitingCount="0" stopTime="0.00" timeLoss="10.10" rerouteNo="0" devices="tripinfo_79" vType="DEFAULT_VEHTYPE" speedFactor="1.09" vaporized=""/>
    <tripinfo id="84" depart="299.00" departLane="54o_0" departPos="5.10" departSpeed="0.00" departDelay="-0.88" arrival="337.00" arrivalLane="51i_0" arrivalPos="10.00" arrivalSpeed="21.29" duration="38.00" routeLength="596.93" waitingTime="0.00" waitingCount="0" stopTime="0.00" timeLoss="10.36" rerouteNo="0" devices="tripinfo_84" vType="DEFAULT_VEHTYPE" speedFactor="1.15" vaporized=""/>
    <tripinfo id="86" depart="307.00" departLane="54o_0" departPos="5.10" departSpeed="0.00" departDelay="-0.02" arrival="348.00" arrivalLane="51i_0" arrivalPos="10.00" arrivalSpeed="18.99" duration="41.00" routeLength="596.93" waitingTime="0.00" waitingCount="0" stopTime="0.00" timeLoss="9.25" rerouteNo="0" devices="tripinfo_86" vType="DEFAULT_VEHTYPE" speedFactor="1.00" vaporized=""/>
    <tripinfo id="89" depart="317.00" departLane="54o_0" departPos="5.10" departSpeed="0.00" departDelay="-0.73" arrival="359.00" arrivalLane="52i_0" arrivalPos="10.00" arrivalSpeed="19.49" duration="42.00" routeLength="617.75" waitingTime="0.00" waitingCount="0" stopTime="0.00" timeLoss="9.44" rerouteNo="0" devices="tripinfo_89" vType="DEFAULT_VEHTYPE" speedFactor="1.02" vaporized=""/>
    <tripinfo id="94" depart="335.00" departLane="54o_0" departPos="5.10" departSpeed="0.00" departDelay="-0.58" arrival="374.00" arrivalLane="52i_0" arrivalPos="10.00" arrivalSpeed="20.27" duration="39.00" routeLength="617.75" waitingTime="0.00" waitingCount="0" stopTime="0.00" timeLoss="8.79" rerouteNo="0" devices="tripinfo_94" vType="DEFAULT_VEHTYPE" speedFactor="1.09" vaporized=""/>
    <tripinfo id="30" depart="107.00" departLane="52o_0" departPos="5.10" departSpeed="0.00" departDelay="-0.10" arrival="391.00" arrivalLane="54i_0" arrivalPos="10.00" arrivalSpeed="22.36" duration="284.00" routeLength="596.93" waitingTime="242.00" waitingCount="1" stopTime="0.00" timeLoss="257.10" rerouteNo="0" devices="tripinfo_30" vType="DEFAULT_VEHTYPE" speedFactor="1.18" vaporized=""/>
    <tripinfo id="46" depart="164.00" departLane="52o_0" departPos="5.10" departSpeed="0.00" departDelay="-0.22" arrival="393.00" arrivalLane="51i_1" arrivalPos="10.00" arrivalSpeed="18.98" duration="229.00" routeLength="615.10" waitingTime="184.00" waitingCount="1" stopTime="0.00" timeLoss="197.28" rerouteNo="0" devices="tripinfo_46" vType="DEFAULT_VEHTYPE" speedFactor="1.00" vaporized=""/>
    <tripinfo id="38" depart="135.00" departLane="52o_0" departPos="5.10" departSpeed="0.00" departDelay="-0.66" arrival="394.00" arrivalLane="53i_0" arrivalPos="10.00" arrivalSpeed="20.67" duration="259.00" routeLength="617.75" waitingTime="214.00" waitingCount="1" stopTime="0.00" timeLoss="229.07" rerouteNo="0" devices="tripinfo_38" vType="DEFAULT_VEHTYPE" speedFactor="1.10" vaporized=""/>
    <tripinfo id="36" depart="128.00" departLane="52o_0" departPos="5.10" departSpeed="0.00" departDelay="-0.52" arrival="397.00" arrivalLane="54i_0" arrivalPos="10.00" arrivalSpeed="18.81" duration="269.00" routeLength="596.93" waitingTime="222.00" waitingCount="1" stopTime="0.00" timeLoss="235.35" rerouteNo="0" devices="tripinfo_36" vType="DEFAULT_VEHTYPE" speedFactor="0.97" vaporized=""/>
    <tripinfo id="37" depart="132.00" departLane="52o_0" departPos="5.10" departSpeed="0.00" departDelay="-0.09" arrival="398.00" arrivalLane="54i_0" arrivalPos="10.00" arrivalSpeed="19.79" duration="266.00" routeLength="596.93" waitingTime="219.00" waitingCount="1" stopTime="0.00" timeLoss="238.80" rerouteNo="0" devices="tripinfo_37" vType="DEFAULT_VEHTYPE" speedFactor="1.18" vaporized=""/>
    <tripinfo id="48" depart="171.00" departLane="52o_0" departPos="5.10" departSpeed="0.00" departDelay="-0.36" arrival="398.00" arrivalLane="51i_1" arrivalPos="10.00" arrivalSpeed="16.18" duration="227.00" routeLength="615.10" waitingTime="178.00" waitingCount="1" stopTime="0.00" timeLoss="190.19" rerouteNo="0" devices="tripinfo_48" vType="DEFAULT_VEHTYPE" speedFactor="0.88" vaporized=""/>
    <tripinfo id="53" depart="189.00" departLane="52o_0" departPos="5.10" departSpeed="0.00" departDelay="-0.21" arrival="398.00" arrivalLane="53i_0" arrivalPos="10.00" arrivalSpeed="20.88" duration="209.00" routeLength="617.75" waitingTime="164.00" waitingCount="1" stopTime="0.00" timeLoss="178.92" rerouteNo="0" devices="tripinfo_53" vType="DEFAULT_VEHTYPE" speedFactor="1.10" vaporized=""/>
    <tripinfo id="49" depart="174.00" departLane="52o_0" departPos="5.10" departSpeed="0.00" departDelay="-0.93" arrival="399.00" arrivalLane="51i_2" arrivalPos="10.00" arrivalSpeed="15.81" duration="225.00" routeLength="615.10" waitingTime="175.00" waitingCount="1" stopTime="0.00" timeLoss="187.05" rerouteNo="0" devices="tripinfo_49" vType="DEFAULT_VEHTYPE" speedFactor="0.85" vaporized=""/>
    <tripinfo id="77" depart="274.00" departLane="52o_0" departPos="5.10" departSpeed="0.00" departDelay="-0.89" arrival="399.00" arrivalLane="51i_1" arrivalPos="10.00" arrivalSpeed="16.07" duration="125.00" routeLength="615.10" waitingTime="75.00" waitingCount="1" stopTime="0.00" timeLoss="92.69" rerouteNo="0" devices="tripinfo_77" vType="DEFAULT_VEHTYPE" speedFactor="0.98" vaporized=""/>
    <tripinfo id="40" depart="142.00" departLane="52o_0" departPos="5.10" departSpeed="0.00" departDelay="-0.80" arrival="400.00" arrivalLane="54i_0" arrivalPos="10.00" arrivalSpeed="19.04" duration="258.00" routeLength="596.93" waitingTime="211.00" waitingCount="1" stopTime="0.00" timeLoss="226.87" rerouteNo="0" devices="tripinfo_40" vType="DEFAULT_VEHTYPE" speedFactor="1.03" vaporized=""/>
    <tripinfo id="54" depart="192.00" departLane="52o_0" departPos="5.10" departSpeed="0.00" departDelay="-0.78" arrival="401.00" arrivalLane="53i_0" arrivalPos="10.00" arrivalSpeed="18.97" duration="209.00" routeLength="617.75" waitingTime="162.00" waitingCount="1" stopTime="0.00" timeLoss="176.05" rerouteNo="0" devices="tripinfo_54" vType="DEFAULT_VEHTYPE" speedFactor="1.00" vaporized=""/>
    <tripinfo id="88" depart="314.00" departLane="52o_0" departPos="5.10" departSpeed="0.00" departDelay="-0.16" arrival="401.00" arrivalLane="51i_1" arrivalPos="10.00" arrivalSpeed="18.48" duration="87.00" routeLength="615.10" waitingTime="38.00" waitingCount="1" stopTime="0.00" timeLoss="55.01" rerouteNo="0" devices="tripinfo_88" vType="DEFAULT_VEHTYPE" speedFactor="1.01" vaporized=""/>
    <tripinfo id="96" depart="342.00" departLane="52o_0" departPos="5.10" departSpeed="0.00" departDelay="-0.72" arrival="402.00" arrivalLane="51i_1" arrivalPos="10.00" arrivalSpeed="18.69" duration="60.00" routeLength="615.10" waitingTime="9.00" waitingCount="2" stopTime="0.00" timeLoss="28.59" rerouteNo="0" devices="tripinfo_96" vType="DEFAULT_VEHTYPE" speedFactor="1.01" vaporized=""/>