<?xml version="1.0" encoding="UTF-8"?>

<!-- generated on Wed Nov  6 12:02:34 2019 by Eclipse SUMO Version 1.2.0
<configuration xmlns:xsi="http://www.w3.org/2001/XMLSchema-instance" xsi:noNamespaceSchemaLocation="http://sumo.dlr.de/xsd/sumoConfiguration.xsd">

    <input>
        <net-file value="simulation_files/sumocfgs/../networks/isolated_3_lanes_4_stages.net.xml"/>
        <route-files value="simulation_files/sumocfgs/../routes/isolated_3_lanes_hp_tuning.rou.xml"/>
    </input>

    <output>
        <tripinfo-output value="rf_avg_veh_number_1e-05_0.7999999999999999_0.6_1_tripinfo_isolated2.xml"/>
    </output>

    <time>
        <begin value="0"/>
        <step-length value="1"/>
    </time>

    <report>
        <verbose value="true"/>
        <no-step-log value="true"/>
    </report>

    <gui_only>
        <tracker-interval value="1"/>
    </gui_only>

</configuration>
-->

<tripinfos xmlns:xsi="http://www.w3.org/2001/XMLSchema-instance" xsi:noNamespaceSchemaLocation="http://sumo.dlr.de/xsd/tripinfo_file.xsd">
    <tripinfo id="1_0" depart="0.00" departLane="54o_0" departPos="5.10" departSpeed="0.00" departDelay="0.00" arrival="39.00" arrivalLane="51i_0" arrivalPos="10.00" arrivalSpeed="19.76" duration="39.00" routeLength="596.93" waitingTime="0.00" waitingCount="0" stopTime="0.00" timeLoss="9.32" rerouteNo="0" devices="tripinfo_1_0" vType="DEFAULT_VEHTYPE" speedFactor="1.06" vaporized=""/>
    <tripinfo id="1_1" depart="15.00" departLane="53o_0" departPos="5.10" departSpeed="0.00" departDelay="0.00" arrival="95.00" arrivalLane="54i_0" arrivalPos="10.00" arrivalSpeed="17.74" duration="80.00" routeLength="615.10" waitingTime="35.00" waitingCount="1" stopTime="0.00" timeLoss="45.50" rerouteNo="0" devices="tripinfo_1_1" vType="DEFAULT_VEHTYPE" speedFactor="0.94" vaporized=""/>
    <tripinfo id="1_3" depart="45.00" departLane="53o_0" departPos="5.10" departSpeed="0.00" departDelay="0.00" arrival="95.00" arrivalLane="52i_0" arrivalPos="10.00" arrivalSpeed="19.82" duration="50.00" routeLength="596.93" waitingTime="6.00" waitingCount="1" stopTime="0.00" timeLoss="19.96" rerouteNo="0" devices="tripinfo_1_3" vType="DEFAULT_VEHTYPE" speedFactor="1.08" vaporized=""/>
    <tripinfo id="1_6" depart="90.00" departLane="53o_0" departPos="5.10" departSpeed="0.00" departDelay="0.00" arrival="127.00" arrivalLane="54i_0" arrivalPos="10.00" arrivalSpeed="19.34" duration="37.00" routeLength="615.10" waitingTime="0.00" waitingCount="0" stopTime="0.00" timeLoss="5.95" rerouteNo="0" devices="tripinfo_1_6" vType="DEFAULT_VEHTYPE" speedFactor="1.05" vaporized=""/>
    <tripinfo id="1_8" depart="120.00" departLane="53o_0" departPos="5.10" departSpeed="0.00" departDelay="0.00" arrival="163.00" arrivalLane="52i_0" arrivalPos="10.00" arrivalSpeed="17.95" duration="43.00" routeLength="596.93" waitingTime="0.00" waitingCount="0" stopTime="0.00" timeLoss="9.40" rerouteNo="0" devices="tripinfo_1_8" vType="DEFAULT_VEHTYPE" speedFactor="0.94" vaporized=""/>
    <tripinfo id="1_4" depart="60.00" departLane="51o_0" departPos="5.10" departSpeed="0.00" departDelay="0.00" arrival="177.00" arrivalLane="52i_0" arrivalPos="10.00" arrivalSpeed="19.86" duration="117.00" routeLength="615.10" waitingTime="71.00" waitingCount="1" stopTime="0.00" timeLoss="85.62" rerouteNo="0" devices="tripinfo_1_4" vType="DEFAULT_VEHTYPE" speedFactor="1.03" vaporized=""/>
    <tripinfo id="1_2" depart="30.00" departLane="51o_0" departPos="5.10" departSpeed="0.00" departDelay="0.00" arrival="178.00" arrivalLane="54i_0" arrivalPos="10.00" arrivalSpeed="19.39" duration="148.00" routeLength="617.75" waitingTime="101.00" waitingCount="1" stopTime="0.00" timeLoss="114.67" rerouteNo="0" devices="tripinfo_1_2" vType="DEFAULT_VEHTYPE" speedFactor="1.01" vaporized=""/>
    <tripinfo id="1_7" depart="105.00" departLane="51o_0" departPos="5.10" departSpeed="0.00" departDelay="0.00" arrival="181.00" arrivalLane="53i_0" arrivalPos="10.00" arrivalSpeed="16.62" duration="76.00" routeLength="596.93" waitingTime="27.00" waitingCount="1" stopTime="0.00" timeLoss="39.42" rerouteNo="0" devices="tripinfo_1_7" vType="DEFAULT_VEHTYPE" speedFactor="0.89" vaporized=""/>
    <tripinfo id="1_12" depart="180.00" departLane="51o_0" departPos="5.10" departSpeed="0.00" departDelay="0.00" arrival="216.00" arrivalLane="52i_0" arrivalPos="10.00" arrivalSpeed="19.44" duration="36.00" routeLength="615.10" waitingTime="0.00" waitingCount="0" stopTime="0.00" timeLoss="5.21" rerouteNo="0" devices="tripinfo_1_12" vType="DEFAULT_VEHTYPE" speedFactor="1.05" vaporized=""/>
    <tripinfo id="1_13" depart="195.00" departLane="51o_0" departPos="5.10" departSpeed="0.00" departDelay="0.00" arrival="234.00" arrivalLane="53i_0" arrivalPos="10.00" arrivalSpeed="20.62" duration="39.00" routeLength="596.93" waitingTime="0.00" waitingCount="0" stopTime="0.00" timeLoss="10.61" rerouteNo="0" devices="tripinfo_1_13" vType="DEFAULT_VEHTYPE" speedFactor="1.12" vaporized=""/>
    <tripinfo id="1_11" depart="165.00" departLane="54o_0" departPos="5.10" departSpeed="0.00" departDelay="0.00" arrival="244.00" arrivalLane="53i_0" arrivalPos="10.00" arrivalSpeed="19.49" duration="79.00" routeLength="615.10" waitingTime="35.00" waitingCount="1" stopTime="0.00" timeLoss="48.17" rerouteNo="0" devices="tripinfo_1_11" vType="DEFAULT_VEHTYPE" speedFactor="1.03" vaporized=""/>
    <tripinfo id="1_5" depart="75.00" departLane="52o_0" departPos="5.10" departSpeed="0.00" departDelay="0.00" arrival="279.00" arrivalLane="54i_0" arrivalPos="10.00" arrivalSpeed="15.54" duration="204.00" routeLength="596.93" waitingTime="155.00" waitingCount="1" stopTime="0.00" timeLoss="166.30" rerouteNo="0" devices="tripinfo_1_5" vType="DEFAULT_VEHTYPE" speedFactor="0.83" vaporized=""/>
    <tripinfo id="1_9" depart="135.00" departLane="52o_0" departPos="5.10" departSpeed="0.00" departDelay="0.00" arrival="279.00" arrivalLane="51i_1" arrivalPos="10.00" arrivalSpeed="15.79" duration="144.00" routeLength="615.10" waitingTime="96.00" waitingCount="1" stopTime="0.00" timeLoss="106.63" rerouteNo="0" devices="tripinfo_1_9" vType="DEFAULT_VEHTYPE" speedFactor="0.86" vaporized=""/>
    <tripinfo id="1_14" depart="210.00" departLane="52o_0" departPos="5.10" departSpeed="0.00" departDelay="0.00" arrival="281.00" arrivalLane="54i_0" arrivalPos="10.00" arrivalSpeed="18.93" duration="71.00" routeLength="596.93" waitingTime="22.00" waitingCount="1" stopTime="0.00" timeLoss="38.26" rerouteNo="0" devices="tripinfo_1_14" vType="DEFAULT_VEHTYPE" speedFactor="0.99" vaporized=""/>
    <tripinfo id="1_20" depart="300.00" departLane="52o_0" departPos="5.10" departSpeed="0.00" departDelay="0.00" arrival="340.00" arrivalLane="54i_0" arrivalPos="10.00" arrivalSpeed="19.02" duration="40.00" routeLength="596.93" waitingTime="0.00" waitingCount="0" stopTime="0.00" timeLoss="8.42" rerouteNo="0" devices="tripinfo_1_20" vType="DEFAULT_VEHTYPE" speedFactor="1.02" vaporized=""/>
    <tripinfo id="1_10" depart="150.00" departLane="53o_0" departPos="5.10" departSpeed="0.00" departDelay="0.00" arrival="352.00" arrivalLane="52i_0" arrivalPos="10.00" arrivalSpeed="20.32" duration="202.00" routeLength="596.93" waitingTime="161.00" waitingCount="1" stopTime="0.00" timeLoss="172.87" rerouteNo="0" devices="tripinfo_1_10" vType="DEFAULT_VEHTYPE" speedFactor="1.09" vaporized=""/>
    <tripinfo id="1_19" depart="285.00" departLane="53o_0" departPos="5.10" departSpeed="0.00" departDelay="0.00" arrival="354.00" arrivalLane="52i_0" arrivalPos="10.00" arrivalSpeed="21.98" duration="69.00" routeLength="596.93" waitingTime="27.00" waitingCount="1" stopTime="0.00" timeLoss="41.13" rerouteNo="0" devices="tripinfo_1_19" vType="DEFAULT_VEHTYPE" speedFactor="1.16" vaporized=""/>
    <tripinfo id="1_18" depart="270.00" departLane="53o_0" departPos="5.10" departSpeed="0.00" departDelay="0.00" arrival="355.00" arrivalLane="54i_2" arrivalPos="10.00" arrivalSpeed="17.88" duration="85.00" routeLength="615.10" waitingTime="37.00" waitingCount="1" stopTime="0.00" timeLoss="50.90" rerouteNo="0" devices="tripinfo_1_18" vType="DEFAULT_VEHTYPE" speedFactor="0.94" vaporized=""/>
    <tripinfo id="1_15" depart="225.00" departLane="53o_0" departPos="5.10" departSpeed="0.00" departDelay="0.00" arrival="356.00" arrivalLane="54i_0" arrivalPos="10.00" arrivalSpeed="17.91" duration="131.00" routeLength="615.10" waitingTime="82.00" waitingCount="1" stopTime="0.00" timeLoss="96.19" rerouteNo="0" devices="tripinfo_1_15" vType="DEFAULT_VEHTYPE" speedFactor="0.93" vaporized=""/>
    <tripinfo id="1_25" depart="375.00" departLane="53o_0" departPos="5.10" departSpeed="0.00" departDelay="0.00" arrival="420.00" arrivalLane="52i_0" arrivalPos="10.00" arrivalSpeed="16.34" duration="45.00" routeLength="596.93" waitingTime="0.00" waitingCount="0" stopTime="0.00" timeLoss="8.41" rerouteNo="0" devices="tripinfo_1_25" vType="DEFAULT_VEHTYPE" speedFactor="0.87" vaporized=""/>
    <tripinfo id="1_16" depart="240.00" departLane="51o_0" departPos="5.10" departSpeed="0.00" departDelay="0.00" arrival="452.00" arrivalLane="54i_0" arrivalPos="10.00" arrivalSpeed="15.90" duration="212.00" routeLength="617.75" waitingTime="163.00" waitingCount="1" stopTime="0.00" timeLoss="174.11" rerouteNo="0" devices="tripinfo_1_16" vType="DEFAULT_VEHTYPE" speedFactor="0.88" vaporized=""/>
    <tripinfo id="1_29" depart="435.00" departLane="51o_0" departPos="5.10" departSpeed="0.00" departDelay="0.00" arrival="477.00" arrivalLane="53i_0" arrivalPos="10.00" arrivalSpeed="17.35" duration="42.00" routeLength="596.93" waitingTime="0.00" waitingCount="0" stopTime="0.00" timeLoss="7.93" rerouteNo="0" devices="tripinfo_1_29" vType="DEFAULT_VEHTYPE" speedFactor="0.93" vaporized=""/>
    <tripinfo id="1_28" depart="420.00" departLane="54o_0" departPos="5.10" departSpeed="0.00" departDelay="0.00" arrival="507.00" arrivalLane="52i_0" arrivalPos="10.00" arrivalSpeed="21.33" duration="87.00" routeLength="617.75" waitingTime="45.00" waitingCount="1" stopTime="0.00" timeLoss="57.59" rerouteNo="0" devices="tripinfo_1_28" vType="DEFAULT_VEHTYPE" speedFactor="1.13" vaporized=""/>
    <tripinfo id="1_17" depart="255.00" departLane="54o_0" departPos="5.10" departSpeed="0.00" departDelay="0.00" arrival="508.00" arrivalLane="51i_0" arrivalPos="10.00" arrivalSpeed="17.91" duration="253.00" routeLength="596.93" waitingTime="206.00" waitingCount="1" stopTime="0.00" timeLoss="219.07" rerouteNo="0" devices="tripinfo_1_17" vType="DEFAULT_VEHTYPE" speedFactor="0.94" vaporized=""/>
    <tripinfo id="1_22" depart="330.00" departLane="54o_0" departPos="5.10" departSpeed="0.00" departDelay="0.00" arrival="508.00" arrivalLane="53i_0" arrivalPos="10.00" arrivalSpeed="18.36" duration="178.00" routeLength="615.10" waitingTime="134.00" waitingCount="1" stopTime="0.00" timeLoss="145.17" rerouteNo="0" devices="tripinfo_1_22" vType="DEFAULT_VEHTYPE" speedFactor="0.98" vaporized=""/>
    <tripinfo id="1_30" depart="450.00" departLane="54o_0" departPos="5.10" departSpeed="0.00" departDelay="0.00" arrival="509.00" arrivalLane="52i_0" arrivalPos="10.00" arrivalSpeed="21.91" duration="59.00" routeLength="617.75" waitingTime="16.00" waitingCount="1" stopTime="0.00" timeLoss="30.38" rerouteNo="0" devices="tripinfo_1_30" vType="DEFAULT_VEHTYPE" speedFactor="1.18" vaporized=""/>
    <tripinfo id="1_23" depart="345.00" departLane="54o_0" departPos="5.10" departSpeed="0.00" departDelay="0.00" arrival="512.00" arrivalLane="51i_0" arrivalPos="10.00" arrivalSpeed="16.61" duration="167.00" routeLength="596.93" waitingTime="117.00" waitingCount="1" stopTime="0.00" timeLoss="131.03" rerouteNo="0" devices="tripinfo_1_23" vType="DEFAULT_VEHTYPE" speedFactor="0.89" vaporized=""/>
    <tripinfo id="1_32" depart="480.00" departLane="54o_0" departPos="5.10" departSpeed="0.00" departDelay="0.00" arrival="521.00" arrivalLane="51i_0" arrivalPos="10.00" arrivalSpeed="19.09" duration="41.00" routeLength="596.93" waitingTime="0.00" waitingCount="0" stopTime="0.00" timeLoss="8.43" rerouteNo="0" devices="tripinfo_1_32" vType="DEFAULT_VEHTYPE" speedFactor="1.01" vaporized=""/>
    <tripinfo id="1_33" depart="495.00" departLane="52o_0" departPos="5.10" departSpeed="0.00" departDelay="0.00" arrival="554.00" arrivalLane="51i_0" arrivalPos="10.00" arrivalSpeed="21.74" duration="59.00" routeLength="615.10" waitingTime="17.00" waitingCount="1" stopTime="0.00" timeLoss="31.12" rerouteNo="0" devices="tripinfo_1_33" vType="DEFAULT_VEHTYPE" speedFactor="1.17" vaporized=""/>
    <tripinfo id="1_21" depart="315.00" departLane="52o_0" departPos="5.10" departSpeed="0.00" departDelay="0.00" arrival="555.00" arrivalLane="54i_0" arrivalPos="10.00" arrivalSpeed="19.21" duration="240.00" routeLength="596.93" waitingTime="195.00" waitingCount="1" stopTime="0.00" timeLoss="208.41" rerouteNo="0" devices="tripinfo_1_21" vType="DEFAULT_VEHTYPE" speedFactor="1.01" vaporized=""/>
    <tripinfo id="1_26" depart="390.00" departLane="52o_0" departPos="5.10" departSpeed="0.00" departDelay="0.00" arrival="557.00" arrivalLane="53i_0" arrivalPos="10.00" arrivalSpeed="17.78" duration="167.00" routeLength="617.75" waitingTime="120.00" waitingCount="1" stopTime="0.00" timeLoss="130.77" rerouteNo="0" devices="tripinfo_1_26" vType="DEFAULT_VEHTYPE" speedFactor="0.92" vaporized=""/>
    <tripinfo id="1_24" depart="360.00" departLane="52o_0" departPos="5.10" departSpeed="0.00" departDelay="0.00" arrival="561.00" arrivalLane="54i_0" arrivalPos="10.00" arrivalSpeed="15.64" duration="201.00" routeLength="596.93" waitingTime="149.00" waitingCount="1" stopTime="0.00" timeLoss="161.76" rerouteNo="0" devices="tripinfo_1_24" vType="DEFAULT_VEHTYPE" speedFactor="0.83" vaporized=""/>
    <tripinfo id="1_35" depart="525.00" departLane="52o_0" departPos="5.10" departSpeed="0.00" departDelay="0.00" arrival="565.00" arrivalLane="54i_0" arrivalPos="10.00" arrivalSpeed="19.04" duration="40.00" routeLength="596.93" waitingTime="0.00" waitingCount="0" stopTime="0.00" timeLoss="8.65" rerouteNo="0" devices="tripinfo_1_35" vType="DEFAULT_VEHTYPE" speedFactor="1.02" vaporized=""/>
    <tripinfo id="1_37" depart="555.00" departLane="52o_0" departPos="5.10" departSpeed="0.00" departDelay="0.00" arrival="589.00" arrivalLane="51i_0" arrivalPos="10.00" arrivalSpeed="22.04" duration="34.00" routeLength="615.10" waitingTime="0.00" waitingCount="0" stopTime="0.00" timeLoss="6.29" rerouteNo="0" devices="tripinfo_1_37" vType="DEFAULT_VEHTYPE" speedFactor="1.18" vaporized=""/>
    <tripinfo id="1_27" depart="405.00" departLane="53o_0" departPos="5.10" departSpeed="0.00" departDelay="0.00" arrival="642.00" arrivalLane="54i_0" arrivalPos="10.00" arrivalSpeed="18.17" duration="237.00" routeLength="615.10" waitingTime="192.00" waitingCount="1" stopTime="0.00" timeLoss="202.95" rerouteNo="0" devices="tripinfo_1_27" vType="DEFAULT_VEHTYPE" speedFactor="0.95" vaporized=""/>
    <tripinfo id="1_34" depart="510.00" departLane="53o_0" departPos="5.10" departSpeed="0.00" departDelay="0.00" arrival="642.00" arrivalLane="51i_0" arrivalPos="10.00" arrivalSpeed="18.06" duration="132.00" routeLength="617.75" waitingTime="86.00" waitingCount="1" stopTime="0.00" timeLoss="98.53" rerouteNo="0" devices="tripinfo_1_34" vType="DEFAULT_VEHTYPE" speedFactor="0.99" vaporized=""/>
    <tripinfo id="1_36" depart="540.00" departLane="53o_0" departPos="5.10" departSpeed="0.00" departDelay="0.00" arrival="644.00" arrivalLane="51i_0" arrivalPos="10.00" arrivalSpeed="18.58" duration="104.00" routeLength="617.75" waitingTime="57.00" waitingCount="1" stopTime="0.00" timeLoss="69.86" rerouteNo="0" devices="tripinfo_1_36" vType="DEFAULT_VEHTYPE" speedFactor="0.97" vaporized=""/>
    <tripinfo id="1_42" depart="630.00" departLane="53o_0" departPos="5.10" departSpeed="0.00" departDelay="0.00" arrival="665.00" arrivalLane="54i_0" arrivalPos="10.00" arrivalSpeed="20.33" duration="35.00" routeLength="615.10" waitingTime="0.00" waitingCount="0" stopTime="0.00" timeLoss="5.74" rerouteNo="0" devices="tripinfo_1_42" vType="DEFAULT_VEHTYPE" speedFactor="1.09" vaporized=""/>
    <tripinfo id="1_44" depart="660.00" departLane="53o_0" departPos="5.10" departSpeed="0.00" departDelay="0.00" arrival="699.00" arrivalLane="52i_0" arrivalPos="10.00" arrivalSpeed="19.22" duration="39.00" routeLength="596.93" waitingTime="0.00" waitingCount="0" stopTime="0.00" timeLoss="8.60" rerouteNo="0" devices="tripinfo_1_44" vType="DEFAULT_VEHTYPE" speedFactor="1.04" vaporized=""/>
    <tripinfo id="1_31" depart="465.00" departLane="51o_0" departPos="5.10" departSpeed="0.00" departDelay="0.00" arrival="735.00" arrivalLane="54i_0" arrivalPos="10.00" arrivalSpeed="21.92" duration="270.00" routeLength="617.75" waitingTime="230.00" waitingCount="1" stopTime="0.00" timeLoss="241.38" rerouteNo="0" devices="tripinfo_1_31" vType="DEFAULT_VEHTYPE" speedFactor="1.15" vaporized=""/>
    <tripinfo id="1_52" depart="780.00" departLane="51o_0" departPos="5.10" departSpeed="0.00" departDelay="0.00" arrival="820.00" arrivalLane="54i_0" arrivalPos="10.00" arrivalSpeed="18.97" duration="40.00" routeLength="617.75" waitingTime="0.00" waitingCount="0" stopTime="0.00" timeLoss="7.45" rerouteNo="0" devices="tripinfo_1_52" vType="DEFAULT_VEHTYPE" speedFactor="1.02" vaporized=""/>
    <tripinfo id="1_39" depart="585.00" departLane="54o_0" departPos="5.10" departSpeed="0.00" departDelay="0.00" arrival="838.00" arrivalLane="53i_1" arrivalPos="10.00" arrivalSpeed="17.02" duration="253.00" routeLength="615.10" waitingTime="205.00" waitingCount="1" stopTime="0.00" timeLoss="217.59" rerouteNo="0" devices="tripinfo_1_39" vType="DEFAULT_VEHTYPE" speedFactor="0.90" vaporized=""/>
    <tripinfo id="1_38" depart="570.00" departLane="54o_0" departPos="5.10" departSpeed="0.00" departDelay="0.00" arrival="839.00" arrivalLane="53i_0" arrivalPos="10.00" arrivalSpeed="18.61" duration="269.00" routeLength="615.10" waitingTime="223.00" waitingCount="1" stopTime="0.00" timeLoss="240.02" rerouteNo="0" devices="tripinfo_1_38" vType="DEFAULT_VEHTYPE" speedFactor="1.10" vaporized=""/>
    <tripinfo id="1_41" depart="615.00" departLane="54o_0" departPos="5.10" departSpeed="0.00" departDelay="0.00" arrival="840.00" arrivalLane="51i_0" arrivalPos="10.00" arrivalSpeed="17.72" duration="225.00" routeLength="596.93" waitingTime="178.00" waitingCount="1" stopTime="0.00" timeLoss="191.81" rerouteNo="0" devices="tripinfo_1_41" vType="DEFAULT_VEHTYPE" speedFactor="0.96" vaporized=""/>
    <tripinfo id="1_56" depart="840.00" departLane="54o_0" departPos="5.10" departSpeed="0.00" departDelay="0.00" arrival="884.00" arrivalLane="51i_0" arrivalPos="10.00" arrivalSpeed="17.35" duration="44.00" routeLength="596.93" waitingTime="0.00" waitingCount="0" stopTime="0.00" timeLoss="8.61" rerouteNo="0" devices="tripinfo_1_56" vType="DEFAULT_VEHTYPE" speedFactor="0.90" vaporized=""/>
    <tripinfo id="1_58" depart="870.00" departLane="54o_0" departPos="5.10" departSpeed="0.00" departDelay="0.00" arrival="907.00" arrivalLane="53i_0" arrivalPos="10.00" arrivalSpeed="18.71" duration="37.00" routeLength="615.10" waitingTime="0.00" waitingCount="0" stopTime="0.00" timeLoss="5.51" rerouteNo="0" devices="tripinfo_1_58" vType="DEFAULT_VEHTYPE" speedFactor="1.02" vaporized=""/>
    <tripinfo id="1_40" depart="600.00" departLane="52o_0" departPos="5.10" departSpeed="0.00" departDelay="0.00" arrival="944.00" arrivalLane="54i_0" arrivalPos="10.00" arrivalSpeed="19.20" duration="344.00" routeLength="596.93" waitingTime="298.00" waitingCount="1" stopTime="0.00" timeLoss="312.62" rerouteNo="0" devices="tripinfo_1_40" vType="DEFAULT_VEHTYPE" speedFactor="1.03" vaporized=""/>
    <tripinfo id="1_46" depart="690.00" departLane="52o_0" departPos="5.10" departSpeed="0.00" departDelay="0.00" arrival="944.00" arrivalLane="51i_1" arrivalPos="10.00" arrivalSpeed="18.17" duration="254.00" routeLength="615.10" waitingTime="209.00" waitingCount="1" stopTime="0.00" timeLoss="221.99" rerouteNo="0" devices="tripinfo_1_46" vType="DEFAULT_VEHTYPE" speedFactor="1.00" vaporized=""/>
    <tripinfo id="1_51" depart="765.00" departLane="52o_0" departPos="5.10" departSpeed="0.00" departDelay="0.00" arrival="944.00" arrivalLane="51i_2" arrivalPos="10.00" arrivalSpeed="22.48" duration="179.00" routeLength="615.10" waitingTime="137.00" waitingCount="1" stopTime="0.00" timeLoss="151.38" rerouteNo="0" devices="tripinfo_1_51" vType="DEFAULT_VEHTYPE" speedFactor="1.17" vaporized=""/>
    <tripinfo id="1_43" depart="645.00" departLane="52o_0" departPos="5.10" departSpeed="0.00" departDelay="0.00" arrival="946.00" arrivalLane="54i_0" arrivalPos="10.00" arrivalSpeed="19.71" duration="301.00" routeLength="596.93" waitingTime="256.00" waitingCount="1" stopTime="0.00" timeLoss="270.20" rerouteNo="0" devices="tripinfo_1_43" vType="DEFAULT_VEHTYPE" speedFactor="1.04" vaporized=""/>
    <tripinfo id="1_45" depart="675.00" departLane="52o_0" departPos="5.10" departSpeed="0.00" departDelay="0.00" arrival="947.00" arrivalLane="54i_0" arrivalPos="10.00" arrivalSpeed="20.24" duration="272.00" routeLength="596.93" waitingTime="227.00" waitingCount="1" stopTime="0.00" timeLoss="243.03" rerouteNo="0" devices="tripinfo_1_45" vType="DEFAULT_VEHTYPE" speedFactor="1.09" vaporized=""/>
    <tripinfo id="1_50" depart="750.00" departLane="52o_0" departPos="5.10" departSpeed="0.00" departDelay="0.00" arrival="947.00" arrivalLane="53i_0" arrivalPos="10.00" arrivalSpeed="15.87" duration="197.00" routeLength="617.75" waitingTime="147.00" waitingCount="1" stopTime="0.00" timeLoss="158.60" rerouteNo="0" devices="tripinfo_1_50" vType="DEFAULT_VEHTYPE" speedFactor="0.85" vaporized=""/>
    <tripinfo id="1_53" depart="795.00" departLane="52o_0" departPos="5.10" departSpeed="0.00" departDelay="0.00" arrival="949.00" arrivalLane="54i_0" arrivalPos="10.00" arrivalSpeed="21.05" duration="154.00" routeLength="596.93" waitingTime="108.00" waitingCount="1" stopTime="0.00" timeLoss="124.57" rerouteNo="0" devices="tripinfo_1_53" vType="DEFAULT_VEHTYPE" speedFactor="1.10" vaporized=""/>
    <tripinfo id="1_57" depart="855.00" departLane="52o_0" departPos="5.10" departSpeed="0.00" departDelay="0.00" arrival="949.00" arrivalLane="53i_0" arrivalPos="10.00" arrivalSpeed="21.26" duration="94.00" routeLength="617.75" waitingTime="48.00" waitingCount="1" stopTime="0.00" timeLoss="64.72" rerouteNo="0" devices="tripinfo_1_57" vType="DEFAULT_VEHTYPE" speedFactor="1.14" vaporized=""/>
    <tripinfo id="1_59" depart="885.00" departLane="52o_0" departPos="5.10" departSpeed="0.00" departDelay="0.00" arrival="953.00" arrivalLane="54i_0" arrivalPos="10.00" arrivalSpeed="18.08" duration="68.00" routeLength="596.93" waitingTime="20.00" waitingCount="1" stopTime="0.00" timeLoss="35.68" rerouteNo="0" devices="tripinfo_1_59" vType="DEFAULT_VEHTYPE" speedFactor="0.97" vaporized=""/>
    <tripinfo id="1_61" depart="915.00" departLane="53o_0" departPos="5.10" departSpeed="0.00" departDelay="0.00" arrival="963.00" arrivalLane="54i_1" arrivalPos="10.00" arrivalSpeed="21.05" duration="48.00" routeLength="615.10" waitingTime="5.00" waitingCount="1" stopTime="0.00" timeLoss="19.08" rerouteNo="0" devices="tripinfo_1_61" vType="DEFAULT_VEHTYPE" speedFactor="1.12" vaporized=""/>
    <tripinfo id="1_47" depart="705.00" departLane="53o_0" departPos="5.10" departSpeed="0.00" departDelay="0.00" arrival="964.00" arrivalLane="52i_0" arrivalPos="10.00" arrivalSpeed="16.74" duration="259.00" routeLength="596.93" waitingTime="212.00" waitingCount="1" stopTime="0.00" timeLoss="223.96" rerouteNo="0" devices="tripinfo_1_47" vType="DEFAULT_VEHTYPE" speedFactor="0.90" vaporized=""/>
    <tripinfo id="1_48" depart="720.00" departLane="53o_0" departPos="5.10" departSpeed="0.00" departDelay="0.00" arrival="967.00" arrivalLane="51i_0" arrivalPos="10.00" arrivalSpeed="15.87" duration="247.00" routeLength="617.75" waitingTime="198.00" waitingCount="1" stopTime="0.00" timeLoss="208.95" rerouteNo="0" devices="tripinfo_1_48" vType="DEFAULT_VEHTYPE" speedFactor="0.88" vaporized=""/>
    <tripinfo id="1_49" depart="735.00" departLane="53o_0" departPos="5.10" departSpeed="0.00" departDelay="0.00" arrival="969.00" arrivalLane="52i_0" arrivalPos="10.00" arrivalSpeed="15.82" duration="234.00" routeLength="596.93" waitingTime="185.00" waitingCount="1" stopTime="0.00" timeLoss="196.77" rerouteNo="0" devices="tripinfo_1_49" vType="DEFAULT_VEHTYPE" speedFactor="0.85" vaporized=""/>
    <tripinfo id="1_54" depart="810.00" departLane="53o_0" departPos="5.10" departSpeed="0.00" departDelay="0.00" arrival="971.00" arrivalLane="52i_0" arrivalPos="10.00" arrivalSpeed="18.28" duration="161.00" routeLength="596.93" waitingTime="110.00" waitingCount="1" stopTime="0.00" timeLoss="128.78" rerouteNo="0" devices="tripinfo_1_54" vType="DEFAULT_VEHTYPE" speedFactor="1.00" vaporized=""/>
    <tripinfo id="1_65" depart="975.00" departLane="53o_0" departPos="5.10" departSpeed="0.00" departDelay="0.00" arrival="1019.00" arrivalLane="52i_0" arrivalPos="10.00" arrivalSpeed="17.10" duration="44.00" routeLength="596.93" waitingTime="0.00" waitingCount="0" stopTime="0.00" timeLoss="8.11" rerouteNo="0" devices="tripinfo_1_65" vType="DEFAULT_VEHTYPE" speedFactor="0.88" vaporized=""/>
    <tripinfo id="1_66" depart="990.00" departLane="53o_0" departPos="5.10" departSpeed="0.00" departDelay="0.00" arrival="1035.00" arrivalLane="51i_0" arrivalPos="10.00" arrivalSpeed="17.00" duration="45.00" routeLength="617.75" waitingTime="0.00" waitingCount="0" stopTime="0.00" timeLoss="8.13" rerouteNo="0" devices="tripinfo_1_66" vType="DEFAULT_VEHTYPE" speedFactor="0.91" vaporized=""/>
    <tripinfo id="1_60" depart="900.00" departLane="51o_0" departPos="5.10" departSpeed="0.00" departDelay="0.00" arrival="1047.00" arrivalLane="52i_0" arrivalPos="10.00" arrivalSpeed="18.20" duration="147.00" routeLength="615.10" waitingTime="103.00" waitingCount="1" stopTime="0.00" timeLoss="117.48" rerouteNo="0" devices="tripinfo_1_60" vType="DEFAULT_VEHTYPE" speedFactor="1.08" vaporized=""/>
    <tripinfo id="1_63" depart="945.00" departLane="51o_0" departPos="5.10" departSpeed="0.00" departDelay="0.00" arrival="1047.00" arrivalLane="52i_1" arrivalPos="10.00" arrivalSpeed="19.14" duration="102.00" routeLength="615.10" waitingTime="57.00" waitingCount="1" stopTime="0.00" timeLoss="69.38" rerouteNo="0" devices="tripinfo_1_63" vType="DEFAULT_VEHTYPE" speedFactor="0.99" vaporized=""/>
    <tripinfo id="1_55" depart="825.00" departLane="51o_0" departPos="5.10" departSpeed="0.00" departDelay="0.00" arrival="1048.00" arrivalLane="54i_0" arrivalPos="10.00" arrivalSpeed="18.50" duration="223.00" routeLength="617.75" waitingTime="177.00" waitingCount="1" stopTime="0.00" timeLoss="189.89" rerouteNo="0" devices="tripinfo_1_55" vType="DEFAULT_VEHTYPE" speedFactor="1.00" vaporized=""/>
    <tripinfo id="1_62" depart="930.00" departLane="51o_0" departPos="5.10" departSpeed="0.00" departDelay="0.00" arrival="1048.00" arrivalLane="53i_0" arrivalPos="10.00" arrivalSpeed="19.32" duration="118.00" routeLength="596.93" waitingTime="73.00" waitingCount="1" stopTime="0.00" timeLoss="86.54" rerouteNo="0" devices="tripinfo_1_62" vType="DEFAULT_VEHTYPE" speedFactor="1.02" vaporized=""/>
    <tripinfo id="1_71" depart="1065.00" departLane="54o_0" departPos="5.10" departSpeed="0.00" departDelay="0.00" arrival="1157.00" arrivalLane="51i_0" arrivalPos="10.00" arrivalSpeed="18.19" duration="92.00" routeLength="596.93" waitingTime="46.00" waitingCount="1" stopTime="0.00" timeLoss="59.04" rerouteNo="0" devices="tripinfo_1_71" vType="DEFAULT_VEHTYPE" speedFactor="0.97" vaporized=""/>
    <tripinfo id="1_68" depart="1020.00" departLane="54o_0" departPos="5.10" departSpeed="0.00" departDelay="0.00" arrival="1158.00" arrivalLane="52i_0" arrivalPos="10.00" arrivalSpeed="19.41" duration="138.00" routeLength="617.75" waitingTime="92.00" waitingCount="1" stopTime="0.00" timeLoss="106.14" rerouteNo="0" devices="tripinfo_1_68" vType="DEFAULT_VEHTYPE" speedFactor="1.04" vaporized=""/>
    <tripinfo id="1_75" depart="1125.00" departLane="54o_0" departPos="5.10" departSpeed="0.00" departDelay="0.00" arrival="1167.00" arrivalLane="51i_0" arrivalPos="10.00" arrivalSpeed="18.21" duration="42.00" routeLength="596.93" waitingTime="0.00" waitingCount="0" stopTime="0.00" timeLoss="9.35" rerouteNo="0" devices="tripinfo_1_75" vType="DEFAULT_VEHTYPE" speedFactor="0.98" vaporized=""/>
    <tripinfo id="1_80" depart="1200.00" departLane="54o_0" departPos="5.10" departSpeed="0.00" departDelay="0.00" arrival="1236.00" arrivalLane="53i_0" arrivalPos="10.00" arrivalSpeed="19.21" duration="36.00" routeLength="615.10" waitingTime="0.00" waitingCount="0" stopTime="0.00" timeLoss="5.04" rerouteNo="0" devices="tripinfo_1_80" vType="DEFAULT_VEHTYPE" speedFactor="1.03" vaporized=""/>
    <tripinfo id="1_77" depart="1155.00" departLane="52o_0" departPos="5.10" departSpeed="0.00" departDelay="0.00" arrival="1276.00" arrivalLane="51i_1" arrivalPos="10.00" arrivalSpeed="17.99" duration="121.00" routeLength="615.10" waitingTime="76.00" waitingCount="1" stopTime="0.00" timeLoss="88.15" rerouteNo="0" devices="tripinfo_1_77" vType="DEFAULT_VEHTYPE" speedFactor="0.98" vaporized=""/>
    <tripinfo id="1_64" depart="960.00" departLane="52o_0" departPos="5.10" departSpeed="0.00" departDelay="0.00" arrival="1277.00" arrivalLane="51i_0" arrivalPos="10.00" arrivalSpeed="16.96" duration="317.00" routeLength="615.10" waitingTime="271.00" waitingCount="1" stopTime="0.00" timeLoss="283.07" rerouteNo="0" devices="tripinfo_1_64" vType="DEFAULT_VEHTYPE" speedFactor="0.94" vaporized=""/>
    <tripinfo id="1_74" depart="1110.00" departLane="52o_0" departPos="5.10" departSpeed="0.00" departDelay="0.00" arrival="1277.00" arrivalLane="53i_0" arrivalPos="10.00" arrivalSpeed="18.01" duration="167.00" routeLength="617.75" waitingTime="122.00" waitingCount="1" stopTime="0.00" timeLoss="132.69" rerouteNo="0" devices="tripinfo_1_74" vType="DEFAULT_VEHTYPE" speedFactor="0.96" vaporized=""/>