<?xml version="1.0" encoding="UTF-8"?>

<!-- generated on Sun Sep  8 21:41:05 2019 by Eclipse SUMO GUI Version 1.2.0
<configuration xmlns:xsi="http://www.w3.org/2001/XMLSchema-instance" xsi:noNamespaceSchemaLocation="http://sumo.dlr.de/xsd/sumoConfiguration.xsd">

    <input>
        <net-file value="simulation_files/sumocfgs/../networks/grid10.net.xml"/>
        <route-files value="simulation_files/sumocfgs/../routes/grid10.rou.xml"/>
    </input>

    <output>
        <tripinfo-output value="tripinfo_grid10.xml"/>
    </output>

    <time>
        <begin value="0"/>
    </time>

    <report>
        <verbose value="true"/>
        <no-step-log value="true"/>
    </report>

    <traci_server>
        <remote-port value="39897"/>
    </traci_server>

</configuration>
-->

<tripinfos xmlns:xsi="http://www.w3.org/2001/XMLSchema-instance" xsi:noNamespaceSchemaLocation="http://sumo.dlr.de/xsd/tripinfo_file.xsd">
    <tripinfo id="0" depart="0.00" departLane="J8J9_0" departPos="5.10" departSpeed="0.00" departDelay="0.00" arrival="10.00" arrivalLane="J8J9_0" arrivalPos="89.60" arrivalSpeed="13.87" duration="10.00" routeLength="84.50" waitingTime="0.00" waitingCount="0" stopTime="0.00" timeLoss="3.60" rerouteNo="0" devices="tripinfo_0" vType="DEFAULT_VEHTYPE" speedFactor="1.06" vaporized=""/>
</tripinfos>
