<?xml version="1.0" encoding="UTF-8"?>

<!-- generated on Fri Oct 18 02:05:37 2019 by Eclipse SUMO Version 1.2.0
<configuration xmlns:xsi="http://www.w3.org/2001/XMLSchema-instance" xsi:noNamespaceSchemaLocation="http://sumo.dlr.de/xsd/sumoConfiguration.xsd">

    <input>
        <net-file value="data/cross.net.xml"/>
        <route-files value="data/cross.rou.xml"/>
        <additional-files value="data/cross.tlsp.xml"/>
    </input>

    <output>
        <tripinfo-output value="tripinfo_isolated2.xml"/>
    </output>

    <time>
        <begin value="0"/>
        <step-length value="1"/>
    </time>

    <report>
        <verbose value="true"/>
        <no-step-log value="true"/>
    </report>

    <traci_server>
        <remote-port value="57503"/>
    </traci_server>

    <gui_only>
        <tracker-interval value="1"/>
    </gui_only>

</configuration>
-->

<tripinfos xmlns:xsi="http://www.w3.org/2001/XMLSchema-instance" xsi:noNamespaceSchemaLocation="http://sumo.dlr.de/xsd/tripinfo_file.xsd">
    <tripinfo id="left_0" depart="0.00" departLane="52o_0" departPos="5.10" departSpeed="0.00" departDelay="0.00" arrival="88.00" arrivalLane="51i_0" arrivalPos="10.00" arrivalSpeed="12.32" duration="88.00" routeLength="1015.10" waitingTime="0.00" waitingCount="0" stopTime="0.00" timeLoss="14.61" rerouteNo="0" devices="tripinfo_left_0" vType="passenger" speedFactor="1.06" vaporized=""/>
    <tripinfo id="right_2" depart="3.00" departLane="51o_0" departPos="5.10" departSpeed="0.00" departDelay="0.00" arrival="94.00" arrivalLane="52i_0" arrivalPos="10.00" arrivalSpeed="11.41" duration="91.00" routeLength="1015.10" waitingTime="0.00" waitingCount="0" stopTime="0.00" timeLoss="15.04" rerouteNo="0" devices="tripinfo_right_2" vType="passenger" speedFactor="1.01" vaporized=""/>
    <tripinfo id="right_4" depart="8.00" departLane="51o_0" departPos="5.10" departSpeed="0.00" departDelay="4.00" arrival="98.00" arrivalLane="52i_0" arrivalPos="10.00" arrivalSpeed="11.48" duration="90.00" routeLength="1015.10" waitingTime="0.00" waitingCount="0" stopTime="0.00" timeLoss="14.92" rerouteNo="0" devices="tripinfo_right_4" vType="passenger" speedFactor="1.03" vaporized=""/>
    <tripinfo id="left_1" depart="5.00" departLane="52o_0" departPos="5.10" departSpeed="0.00" departDelay="3.00" arrival="99.00" arrivalLane="51i_0" arrivalPos="10.00" arrivalSpeed="10.89" duration="94.00" routeLength="1015.10" waitingTime="0.00" waitingCount="0" stopTime="0.00" timeLoss="14.90" rerouteNo="0" devices="tripinfo_left_1" vType="passenger" speedFactor="0.94" vaporized=""/>
    <tripinfo id="left_3" depart="10.00" departLane="52o_0" departPos="5.10" departSpeed="0.00" departDelay="7.00" arrival="101.00" arrivalLane="51i_0" arrivalPos="10.00" arrivalSpeed="11.53" duration="91.00" routeLength="1015.10" waitingTime="0.00" waitingCount="0" stopTime="0.00" timeLoss="18.04" rerouteNo="0" devices="tripinfo_left_3" vType="passenger" speedFactor="1.08" vaporized=""/>
    <tripinfo id="right_8" depart="13.00" departLane="51o_0" departPos="5.10" departSpeed="0.00" departDelay="2.00" arrival="107.00" arrivalLane="52i_0" arrivalPos="10.00" arrivalSpeed="10.56" duration="94.00" routeLength="1015.10" waitingTime="0.00" waitingCount="0" stopTime="0.00" timeLoss="14.97" rerouteNo="0" devices="tripinfo_right_8" vType="passenger" speedFactor="0.94" vaporized=""/>
    <tripinfo id="left_7" depart="15.00" departLane="52o_0" departPos="5.10" departSpeed="0.00" departDelay="5.00" arrival="113.00" arrivalLane="51i_0" arrivalPos="10.00" arrivalSpeed="10.41" duration="98.00" routeLength="1015.10" waitingTime="0.00" waitingCount="0" stopTime="0.00" timeLoss="15.34" rerouteNo="0" devices="tripinfo_left_7" vType="passenger" speedFactor="0.89" vaporized=""/>
    <tripinfo id="left_12" depart="22.00" departLane="52o_0" departPos="5.10" departSpeed="0.00" departDelay="0.00" arrival="114.00" arrivalLane="51i_0" arrivalPos="10.00" arrivalSpeed="10.34" duration="92.00" routeLength="1015.10" waitingTime="0.00" waitingCount="0" stopTime="0.00" timeLoss="18.18" rerouteNo="0" devices="tripinfo_left_12" vType="passenger" speedFactor="1.05" vaporized=""/>
    <tripinfo id="right_9" depart="18.00" departLane="51o_0" departPos="5.10" departSpeed="0.00" departDelay="4.00" arrival="117.00" arrivalLane="52i_0" arrivalPos="10.00" arrivalSpeed="10.27" duration="99.00" routeLength="1015.10" waitingTime="0.00" waitingCount="0" stopTime="0.00" timeLoss="14.92" rerouteNo="0" devices="tripinfo_right_9" vType="passenger" speedFactor="0.86" vaporized=""/>
    <tripinfo id="right_11" depart="23.00" departLane="51o_0" departPos="5.10" departSpeed="0.00" departDelay="1.00" arrival="119.00" arrivalLane="52i_0" arrivalPos="10.00" arrivalSpeed="10.96" duration="96.00" routeLength="1015.10" waitingTime="0.00" waitingCount="0" stopTime="0.00" timeLoss="20.54" rerouteNo="0" devices="tripinfo_right_11" vType="passenger" speedFactor="1.03" vaporized=""/>
    <tripinfo id="right_14" depart="28.00" departLane="51o_0" departPos="5.10" departSpeed="0.00" departDelay="3.00" arrival="120.00" arrivalLane="52i_0" arrivalPos="10.00" arrivalSpeed="11.15" duration="92.00" routeLength="1015.10" waitingTime="0.00" waitingCount="0" stopTime="0.00" timeLoss="15.59" rerouteNo="0" devices="tripinfo_right_14" vType="passenger" speedFactor="0.99" vaporized=""/>
    <tripinfo id="left_15" depart="28.00" departLane="52o_0" departPos="5.10" departSpeed="0.00" departDelay="0.00" arrival="123.00" arrivalLane="51i_0" arrivalPos="10.00" arrivalSpeed="10.80" duration="95.00" routeLength="1015.10" waitingTime="0.00" waitingCount="0" stopTime="0.00" timeLoss="14.98" rerouteNo="0" devices="tripinfo_left_15" vType="passenger" speedFactor="0.93" vaporized=""/>
    <tripinfo id="right_16" depart="33.00" departLane="51o_0" departPos="5.10" departSpeed="0.00" departDelay="2.00" arrival="130.00" arrivalLane="52i_0" arrivalPos="10.00" arrivalSpeed="10.18" duration="97.00" routeLength="1015.10" waitingTime="0.00" waitingCount="0" stopTime="0.00" timeLoss="15.02" rerouteNo="0" devices="tripinfo_right_16" vType="passenger" speedFactor="0.88" vaporized=""/>
    <tripinfo id="right_20" depart="38.00" departLane="51o_0" departPos="5.10" departSpeed="0.00" departDelay="4.00" arrival="132.00" arrivalLane="52i_0" arrivalPos="10.00" arrivalSpeed="10.55" duration="94.00" routeLength="1015.10" waitingTime="1.00" waitingCount="1" stopTime="0.00" timeLoss="18.86" rerouteNo="0" devices="tripinfo_right_20" vType="passenger" speedFactor="1.02" vaporized=""/>
    <tripinfo id="right_21" depart="44.00" departLane="51o_0" departPos="5.10" departSpeed="0.00" departDelay="7.00" arrival="135.00" arrivalLane="52i_0" arrivalPos="10.00" arrivalSpeed="10.84" duration="91.00" routeLength="1015.10" waitingTime="0.00" waitingCount="0" stopTime="0.00" timeLoss="15.46" rerouteNo="0" devices="tripinfo_right_21" vType="passenger" speedFactor="1.01" vaporized=""/>
    <tripinfo id="left_23" depart="41.00" departLane="52o_0" departPos="5.10" departSpeed="0.00" departDelay="0.00" arrival="138.00" arrivalLane="51i_0" arrivalPos="10.00" arrivalSpeed="10.52" duration="97.00" routeLength="1015.10" waitingTime="0.00" waitingCount="0" stopTime="0.00" timeLoss="15.03" rerouteNo="0" devices="tripinfo_left_23" vType="passenger" speedFactor="0.89" vaporized=""/>
    <tripinfo id="right_22" depart="49.00" departLane="51o_0" departPos="5.10" departSpeed="0.00" departDelay="9.00" arrival="142.00" arrivalLane="52i_0" arrivalPos="10.00" arrivalSpeed="11.37" duration="93.00" routeLength="1015.10" waitingTime="0.00" waitingCount="0" stopTime="0.00" timeLoss="15.08" rerouteNo="0" devices="tripinfo_right_22" vType="passenger" speedFactor="0.98" vaporized=""/>
    <tripinfo id="left_25" depart="46.00" departLane="52o_0" departPos="5.10" departSpeed="0.00" departDelay="4.00" arrival="145.00" arrivalLane="51i_0" arrivalPos="10.00" arrivalSpeed="10.19" duration="99.00" routeLength="1015.10" waitingTime="0.00" waitingCount="0" stopTime="0.00" timeLoss="16.18" rerouteNo="0" devices="tripinfo_left_25" vType="passenger" speedFactor="0.87" vaporized=""/>
    <tripinfo id="left_29" depart="51.00" departLane="52o_0" departPos="5.10" departSpeed="0.00" departDelay="2.00" arrival="147.00" arrivalLane="51i_0" arrivalPos="10.00" arrivalSpeed="11.09" duration="96.00" routeLength="1015.10" waitingTime="0.00" waitingCount="0" stopTime="0.00" timeLoss="16.16" rerouteNo="0" devices="tripinfo_left_29" vType="passenger" speedFactor="0.93" vaporized=""/>
    <tripinfo id="down_6" depart="6.00" departLane="54o_0" departPos="5.10" departSpeed="0.00" departDelay="0.00" arrival="157.00" arrivalLane="53i_0" arrivalPos="10.00" arrivalSpeed="12.06" duration="151.00" routeLength="1015.10" waitingTime="50.00" waitingCount="1" stopTime="0.00" timeLoss="76.41" rerouteNo="0" devices="tripinfo_down_6" vType="passenger" speedFactor="1.05" vaporized=""/>
    <tripinfo id="right_24" depart="54.00" departLane="51o_0" departPos="5.10" departSpeed="0.00" departDelay="12.00" arrival="157.00" arrivalLane="52i_0" arrivalPos="10.00" arrivalSpeed="9.53" duration="103.00" routeLength="1015.10" waitingTime="0.00" waitingCount="0" stopTime="0.00" timeLoss="15.49" rerouteNo="0" devices="tripinfo_right_24" vType="passenger" speedFactor="0.83" vaporized=""/>
    <tripinfo id="down_13" depart="23.00" departLane="54o_0" departPos="5.10" departSpeed="0.00" departDelay="0.00" arrival="158.00" arrivalLane="53i_0" arrivalPos="10.00" arrivalSpeed="12.33" duration="135.00" routeLength="1015.10" waitingTime="35.00" waitingCount="1" stopTime="0.00" timeLoss="63.98" rerouteNo="0" devices="tripinfo_down_13" vType="passenger" speedFactor="1.12" vaporized=""/>
    <tripinfo id="down_17" depart="31.00" departLane="54o_0" departPos="5.10" departSpeed="0.00" departDelay="0.00" arrival="165.00" arrivalLane="53i_0" arrivalPos="10.00" arrivalSpeed="10.88" duration="134.00" routeLength="1015.10" waitingTime="29.00" waitingCount="1" stopTime="0.00" timeLoss="55.41" rerouteNo="0" devices="tripinfo_down_17" vType="passenger" speedFactor="0.94" vaporized=""/>
    <tripinfo id="up_5" depart="4.00" departLane="53o_0" departPos="5.10" departSpeed="0.00" departDelay="0.00" arrival="167.00" arrivalLane="54i_0" arrivalPos="10.00" arrivalSpeed="10.49" duration="163.00" routeLength="1015.10" waitingTime="51.00" waitingCount="1" stopTime="0.00" timeLoss="76.59" rerouteNo="0" devices="tripinfo_up_5" vType="passenger" speedFactor="0.83" vaporized=""/>
    <tripinfo id="down_19" depart="36.00" departLane="54o_0" departPos="5.10" departSpeed="0.00" departDelay="3.00" arrival="167.00" arrivalLane="53i_0" arrivalPos="10.00" arrivalSpeed="11.65" duration="131.00" routeLength="1015.10" waitingTime="25.00" waitingCount="1" stopTime="0.00" timeLoss="61.12" rerouteNo="0" devices="tripinfo_down_19" vType="passenger" speedFactor="1.16" vaporized=""/>
    <tripinfo id="up_10" depart="16.00" departLane="53o_0" departPos="5.10" departSpeed="0.00" departDelay="0.00" arrival="168.00" arrivalLane="54i_0" arrivalPos="10.00" arrivalSpeed="10.08" duration="152.00" routeLength="1015.10" waitingTime="41.00" waitingCount="1" stopTime="0.00" timeLoss="79.92" rerouteNo="0" devices="tripinfo_up_10" vType="passenger" speedFactor="1.09" vaporized=""/>
    <tripinfo id="down_33" depart="57.00" departLane="54o_0" departPos="5.10" departSpeed="0.00" departDelay="0.00" arrival="169.00" arrivalLane="53i_0" arrivalPos="10.00" arrivalSpeed="11.89" duration="112.00" routeLength="1015.10" waitingTime="5.00" waitingCount="1" stopTime="0.00" timeLoss="42.24" rerouteNo="0" devices="tripinfo_down_33" vType="passenger" speedFactor="1.17" vaporized=""/>
    <tripinfo id="up_18" depart="32.00" departLane="53o_0" departPos="5.10" departSpeed="0.00" departDelay="0.00" arrival="170.00" arrivalLane="54i_0" arrivalPos="10.00" arrivalSpeed="10.55" duration="138.00" routeLength="1015.10" waitingTime="28.00" waitingCount="1" stopTime="0.00" timeLoss="58.89" rerouteNo="0" devices="tripinfo_up_18" vType="passenger" speedFactor="0.94" vaporized=""/>
    <tripinfo id="up_30" depart="51.00" departLane="53o_0" departPos="5.10" departSpeed="0.00" departDelay="0.00" arrival="172.00" arrivalLane="54i_0" arrivalPos="10.00" arrivalSpeed="11.00" duration="121.00" routeLength="1015.10" waitingTime="8.00" waitingCount="1" stopTime="0.00" timeLoss="51.52" rerouteNo="0" devices="tripinfo_up_30" vType="passenger" speedFactor="1.18" vaporized=""/>
    <tripinfo id="down_39" depart="72.00" departLane="54o_0" departPos="5.10" departSpeed="0.00" departDelay="0.00" arrival="173.00" arrivalLane="53i_0" arrivalPos="10.00" arrivalSpeed="10.46" duration="101.00" routeLength="1015.10" waitingTime="0.00" waitingCount="0" stopTime="0.00" timeLoss="20.01" rerouteNo="0" devices="tripinfo_down_39" vType="passenger" speedFactor="0.90" vaporized=""/>
    <tripinfo id="down_41" depart="77.00" departLane="54o_0" departPos="5.10" departSpeed="0.00" departDelay="3.00" arrival="175.00" arrivalLane="53i_0" arrivalPos="10.00" arrivalSpeed="11.18" duration="98.00" routeLength="1015.10" waitingTime="0.00" waitingCount="0" stopTime="0.00" timeLoss="19.75" rerouteNo="0" devices="tripinfo_down_41" vType="passenger" speedFactor="0.96" vaporized=""/>
    <tripinfo id="up_52" depart="93.00" departLane="53o_0" departPos="5.10" departSpeed="0.00" departDelay="0.00" arrival="183.00" arrivalLane="54i_0" arrivalPos="10.00" arrivalSpeed="11.60" duration="90.00" routeLength="1015.10" waitingTime="0.00" waitingCount="0" stopTime="0.00" timeLoss="14.64" rerouteNo="0" devices="tripinfo_up_52" vType="passenger" speedFactor="1.02" vaporized=""/>
    <tripinfo id="down_49" depart="85.00" departLane="54o_0" departPos="5.10" departSpeed="0.00" departDelay="0.00" arrival="185.00" arrivalLane="53i_0" arrivalPos="10.00" arrivalSpeed="9.70" duration="100.00" routeLength="1015.10" waitingTime="0.00" waitingCount="0" stopTime="0.00" timeLoss="15.09" rerouteNo="0" devices="tripinfo_down_49" vType="passenger" speedFactor="0.85" vaporized=""/>
    <tripinfo id="down_53" depart="98.00" departLane="54o_0" departPos="5.10" departSpeed="0.00" departDelay="0.00" arrival="187.00" arrivalLane="53i_0" arrivalPos="10.00" arrivalSpeed="10.35" duration="89.00" routeLength="1015.10" waitingTime="0.00" waitingCount="0" stopTime="0.00" timeLoss="16.33" rerouteNo="0" devices="tripinfo_down_53" vType="passenger" speedFactor="1.10" vaporized=""/>
    <tripinfo id="down_55" depart="103.00" departLane="54o_0" departPos="5.10" departSpeed="0.00" departDelay="2.00" arrival="195.00" arrivalLane="53i_0" arrivalPos="10.00" arrivalSpeed="11.66" duration="92.00" routeLength="1015.10" waitingTime="0.00" waitingCount="0" stopTime="0.00" timeLoss="15.76" rerouteNo="0" devices="tripinfo_down_55" vType="passenger" speedFactor="1.00" vaporized=""/>
    <tripinfo id="up_56" depart="103.00" departLane="53o_0" departPos="5.10" departSpeed="0.00" departDelay="0.00" arrival="200.00" arrivalLane="54i_0" arrivalPos="10.00" arrivalSpeed="10.36" duration="97.00" routeLength="1015.10" waitingTime="0.00" waitingCount="0" stopTime="0.00" timeLoss="15.98" rerouteNo="0" devices="tripinfo_up_56" vType="passenger" speedFactor="0.90" vaporized=""/>
    <tripinfo id="up_58" depart="108.00" departLane="53o_0" departPos="5.10" departSpeed="0.00" departDelay="4.00" arrival="202.00" arrivalLane="54i_0" arrivalPos="10.00" arrivalSpeed="10.70" duration="94.00" routeLength="1015.10" waitingTime="0.00" waitingCount="0" stopTime="0.00" timeLoss="18.77" rerouteNo="0" devices="tripinfo_up_58" vType="passenger" speedFactor="1.02" vaporized=""/>
    <tripinfo id="up_59" depart="113.00" departLane="53o_0" departPos="5.10" departSpeed="0.00" departDelay="7.00" arrival="205.00" arrivalLane="54i_0" arrivalPos="10.00" arrivalSpeed="10.80" duration="92.00" routeLength="1015.10" waitingTime="0.00" waitingCount="0" stopTime="0.00" timeLoss="14.17" rerouteNo="0" devices="tripinfo_up_59" vType="passenger" speedFactor="0.97" vaporized=""/>
    <tripinfo id="up_61" depart="118.00" departLane="53o_0" departPos="5.10" departSpeed="0.00" departDelay="10.00" arrival="207.00" arrivalLane="54i_0" arrivalPos="10.00" arrivalSpeed="11.81" duration="89.00" routeLength="1015.10" waitingTime="0.00" waitingCount="0" stopTime="0.00" timeLoss="17.38" rerouteNo="0" devices="tripinfo_up_61" vType="passenger" speedFactor="1.12" vaporized=""/>
    <tripinfo id="down_73" depart="129.00" departLane="54o_0" departPos="5.10" departSpeed="0.00" departDelay="0.00" arrival="218.00" arrivalLane="53i_0" arrivalPos="10.00" arrivalSpeed="12.01" duration="89.00" routeLength="1015.10" waitingTime="0.00" waitingCount="0" stopTime="0.00" timeLoss="14.90" rerouteNo="0" devices="tripinfo_down_73" vType="passenger" speedFactor="1.06" vaporized=""/>
    <tripinfo id="up_77" depart="135.00" departLane="53o_0" departPos="5.10" departSpeed="0.00" departDelay="0.00" arrival="227.00" arrivalLane="54i_0" arrivalPos="10.00" arrivalSpeed="11.45" duration="92.00" routeLength="1015.10" waitingTime="0.00" waitingCount="0" stopTime="0.00" timeLoss="14.72" rerouteNo="0" devices="tripinfo_up_77" vType="passenger" speedFactor="0.98" vaporized=""/>
    <tripinfo id="left_37" depart="67.00" departLane="52o_0" departPos="5.10" departSpeed="0.00" departDelay="0.00" arrival="236.00" arrivalLane="51i_0" arrivalPos="10.00" arrivalSpeed="13.27" duration="169.00" routeLength="1015.10" waitingTime="71.00" waitingCount="1" stopTime="0.00" timeLoss="99.77" rerouteNo="0" devices="tripinfo_left_37" vType="passenger" speedFactor="1.18" vaporized=""/>
    <tripinfo id="left_40" depart="74.00" departLane="52o_0" departPos="5.10" departSpeed="0.00" departDelay="0.00" arrival="243.00" arrivalLane="51i_0" arrivalPos="10.00" arrivalSpeed="11.82" duration="169.00" routeLength="1015.10" waitingTime="68.00" waitingCount="1" stopTime="0.00" timeLoss="93.72" rerouteNo="0" devices="tripinfo_left_40" vType="passenger" speedFactor="1.03" vaporized=""/>
    <tripinfo id="right_26" depart="59.00" departLane="51o_0" departPos="5.10" departSpeed="0.00" departDelay="15.00" arrival="245.00" arrivalLane="52i_0" arrivalPos="10.00" arrivalSpeed="10.55" duration="186.00" routeLength="1015.10" waitingTime="80.00" waitingCount="1" stopTime="0.00" timeLoss="105.80" rerouteNo="0" devices="tripinfo_right_26" vType="passenger" speedFactor="0.92" vaporized=""/>
    <tripinfo id="left_43" depart="79.00" departLane="52o_0" departPos="5.10" departSpeed="0.00" departDelay="3.00" arrival="245.00" arrivalLane="51i_0" arrivalPos="10.00" arrivalSpeed="11.82" duration="166.00" routeLength="1015.10" waitingTime="63.00" waitingCount="1" stopTime="0.00" timeLoss="91.40" rerouteNo="0" devices="tripinfo_left_43" vType="passenger" speedFactor="1.04" vaporized=""/>
    <tripinfo id="right_27" depart="64.00" departLane="51o_0" departPos="5.10" departSpeed="0.00" departDelay="17.00" arrival="247.00" arrivalLane="52i_0" arrivalPos="10.00" arrivalSpeed="11.02" duration="183.00" routeLength="1015.10" waitingTime="77.00" waitingCount="1" stopTime="0.00" timeLoss="104.27" rerouteNo="0" devices="tripinfo_right_27" vType="passenger" speedFactor="0.95" vaporized=""/>
    <tripinfo id="left_45" depart="84.00" departLane="52o_0" departPos="5.10" departSpeed="0.00" departDelay="6.00" arrival="247.00" arrivalLane="51i_0" arrivalPos="10.00" arrivalSpeed="12.36" duration="163.00" routeLength="1015.10" waitingTime="60.00" waitingCount="1" stopTime="0.00" timeLoss="89.98" rerouteNo="0" devices="tripinfo_left_45" vType="passenger" speedFactor="1.09" vaporized=""/>
    <tripinfo id="right_28" depart="69.00" departLane="51o_0" departPos="5.10" departSpeed="0.00" departDelay="21.00" arrival="249.00" arrivalLane="52i_0" arrivalPos="10.00" arrivalSpeed="11.45" duration="180.00" routeLength="1015.10" waitingTime="73.00" waitingCount="1" stopTime="0.00" timeLoss="108.68" rerouteNo="0" devices="tripinfo_right_28" vType="passenger" speedFactor="1.13" vaporized=""/>
    <tripinfo id="right_31" depart="74.00" departLane="51o_0" departPos="5.10" departSpeed="0.00" departDelay="18.00" arrival="250.00" arrivalLane="52i_0" arrivalPos="10.00" arrivalSpeed="11.26" duration="176.00" routeLength="1015.10" waitingTime="70.00" waitingCount="1" stopTime="0.00" timeLoss="106.17" rerouteNo="0" devices="tripinfo_right_31" vType="passenger" speedFactor="1.15" vaporized=""/>
</tripinfos>
