<?xml version="1.0" encoding="UTF-8"?>

<!-- generated on Sun Oct 27 03:33:00 2019 by Eclipse SUMO GUI Version 1.2.0
<configuration xmlns:xsi="http://www.w3.org/2001/XMLSchema-instance" xsi:noNamespaceSchemaLocation="http://sumo.dlr.de/xsd/sumoConfiguration.xsd">

    <input>
        <net-file value="simulation_files/sumocfgs/../networks/single_shorter.net.xml"/>
        <route-files value="simulation_files/sumocfgs/../routes/single.rou.xml"/>
        <additional-files value="simulation_files/sumocfgs/../other/single.tlsp.xml"/>
    </input>

    <output>
        <tripinfo-output value="tripinfo_isolated2.xml"/>
    </output>

    <time>
        <begin value="0"/>
        <step-length value="1"/>
    </time>

    <report>
        <verbose value="true"/>
        <no-step-log value="true"/>
    </report>

    <traci_server>
        <remote-port value="57061"/>
    </traci_server>

    <gui_only>
        <tracker-interval value="1"/>
    </gui_only>

</configuration>
-->

<tripinfos xmlns:xsi="http://www.w3.org/2001/XMLSchema-instance" xsi:noNamespaceSchemaLocation="http://sumo.dlr.de/xsd/tripinfo_file.xsd">
    <tripinfo id="left_0_0" depart="0.00" departLane="52o_0" departPos="5.10" departSpeed="0.00" departDelay="0.00" arrival="45.00" arrivalLane="51i_0" arrivalPos="10.00" arrivalSpeed="12.33" duration="45.00" routeLength="415.10" waitingTime="0.00" waitingCount="0" stopTime="0.00" timeLoss="15.24" rerouteNo="0" devices="tripinfo_left_0_0" vType="passenger" speedFactor="1.06" vaporized=""/>
    <tripinfo id="right_0_2" depart="3.00" departLane="51o_0" departPos="5.10" departSpeed="0.00" departDelay="0.00" arrival="48.00" arrivalLane="52i_0" arrivalPos="10.00" arrivalSpeed="11.68" duration="45.00" routeLength="415.10" waitingTime="0.00" waitingCount="0" stopTime="0.00" timeLoss="14.06" rerouteNo="0" devices="tripinfo_right_0_2" vType="passenger" speedFactor="1.01" vaporized=""/>
    <tripinfo id="left_0_1" depart="5.00" departLane="52o_0" departPos="5.10" departSpeed="0.00" departDelay="3.00" arrival="52.00" arrivalLane="51i_0" arrivalPos="10.00" arrivalSpeed="11.16" duration="47.00" routeLength="415.10" waitingTime="0.00" waitingCount="0" stopTime="0.00" timeLoss="14.96" rerouteNo="0" devices="tripinfo_left_0_1" vType="passenger" speedFactor="0.94" vaporized=""/>
    <tripinfo id="left_0_4" depart="11.00" departLane="52o_0" departPos="5.10" departSpeed="0.00" departDelay="1.00" arrival="56.00" arrivalLane="51i_0" arrivalPos="10.00" arrivalSpeed="12.04" duration="45.00" routeLength="415.10" waitingTime="0.00" waitingCount="0" stopTime="0.00" timeLoss="14.03" rerouteNo="0" devices="tripinfo_left_0_4" vType="passenger" speedFactor="1.03" vaporized=""/>
    <tripinfo id="left_0_6" depart="22.00" departLane="52o_0" departPos="5.10" departSpeed="0.00" departDelay="0.00" arrival="66.00" arrivalLane="51i_0" arrivalPos="10.00" arrivalSpeed="12.31" duration="44.00" routeLength="415.10" waitingTime="0.00" waitingCount="0" stopTime="0.00" timeLoss="14.02" rerouteNo="0" devices="tripinfo_left_0_6" vType="passenger" speedFactor="1.05" vaporized=""/>
    <tripinfo id="down_0_9" depart="31.00" departLane="54o_0" departPos="5.10" departSpeed="0.00" departDelay="0.00" arrival="79.00" arrivalLane="53i_0" arrivalPos="10.00" arrivalSpeed="9.82" duration="48.00" routeLength="415.10" waitingTime="0.00" waitingCount="0" stopTime="0.00" timeLoss="13.72" rerouteNo="0" devices="tripinfo_down_0_9" vType="passenger" speedFactor="0.86" vaporized=""/>
    <tripinfo id="up_0_3" depart="4.00" departLane="53o_0" departPos="5.10" departSpeed="0.00" departDelay="0.00" arrival="80.00" arrivalLane="54i_0" arrivalPos="10.00" arrivalSpeed="12.42" duration="76.00" routeLength="415.10" waitingTime="21.00" waitingCount="1" stopTime="0.00" timeLoss="46.25" rerouteNo="0" devices="tripinfo_up_0_3" vType="passenger" speedFactor="1.08" vaporized=""/>
    <tripinfo id="up_0_5" depart="16.00" departLane="53o_0" departPos="5.10" departSpeed="0.00" departDelay="0.00" arrival="85.00" arrivalLane="54i_0" arrivalPos="10.00" arrivalSpeed="9.55" duration="69.00" routeLength="415.10" waitingTime="9.00" waitingCount="1" stopTime="0.00" timeLoss="33.99" rerouteNo="0" devices="tripinfo_up_0_5" vType="passenger" speedFactor="0.83" vaporized=""/>
    <tripinfo id="left_0_10" depart="49.00" departLane="52o_0" departPos="5.10" departSpeed="0.00" departDelay="0.00" arrival="105.00" arrivalLane="51i_0" arrivalPos="10.00" arrivalSpeed="12.79" duration="56.00" routeLength="415.10" waitingTime="0.00" waitingCount="0" stopTime="0.00" timeLoss="26.41" rerouteNo="0" devices="tripinfo_left_0_10" vType="passenger" speedFactor="1.09" vaporized=""/>
    <tripinfo id="right_0_7" depart="25.00" departLane="51o_0" departPos="5.10" departSpeed="0.00" departDelay="0.00" arrival="108.00" arrivalLane="52i_0" arrivalPos="10.00" arrivalSpeed="9.96" duration="83.00" routeLength="415.10" waitingTime="26.00" waitingCount="1" stopTime="0.00" timeLoss="49.45" rerouteNo="0" devices="tripinfo_right_0_7" vType="passenger" speedFactor="0.89" vaporized=""/>
    <tripinfo id="right_0_8" depart="31.00" departLane="51o_0" departPos="5.10" departSpeed="0.00" departDelay="0.00" arrival="110.00" arrivalLane="52i_0" arrivalPos="10.00" arrivalSpeed="10.77" duration="79.00" routeLength="415.10" waitingTime="20.00" waitingCount="1" stopTime="0.00" timeLoss="46.42" rerouteNo="0" devices="tripinfo_right_0_8" vType="passenger" speedFactor="0.94" vaporized=""/>
    <tripinfo id="left_0_11" depart="67.00" departLane="52o_0" departPos="5.10" departSpeed="0.00" departDelay="0.00" arrival="113.00" arrivalLane="51i_0" arrivalPos="10.00" arrivalSpeed="11.77" duration="46.00" routeLength="415.10" waitingTime="0.00" waitingCount="0" stopTime="0.00" timeLoss="14.65" rerouteNo="0" devices="tripinfo_left_0_11" vType="passenger" speedFactor="1.03" vaporized=""/>
    <tripinfo id="left_0_13" depart="74.00" departLane="52o_0" departPos="5.10" departSpeed="0.00" departDelay="0.00" arrival="117.00" arrivalLane="51i_0" arrivalPos="10.00" arrivalSpeed="12.65" duration="43.00" routeLength="415.10" waitingTime="0.00" waitingCount="0" stopTime="0.00" timeLoss="14.12" rerouteNo="0" devices="tripinfo_left_0_13" vType="passenger" speedFactor="1.12" vaporized=""/>
    <tripinfo id="right_0_14" depart="81.00" departLane="51o_0" departPos="5.10" departSpeed="0.00" departDelay="0.00" arrival="126.00" arrivalLane="52i_0" arrivalPos="10.00" arrivalSpeed="11.48" duration="45.00" routeLength="415.10" waitingTime="0.00" waitingCount="0" stopTime="0.00" timeLoss="13.99" rerouteNo="0" devices="tripinfo_right_0_14" vType="passenger" speedFactor="0.99" vaporized=""/>
    <tripinfo id="right_0_16" depart="92.00" departLane="51o_0" departPos="5.10" departSpeed="0.00" departDelay="0.00" arrival="141.00" arrivalLane="52i_0" arrivalPos="10.00" arrivalSpeed="10.04" duration="49.00" routeLength="415.10" waitingTime="0.00" waitingCount="0" stopTime="0.00" timeLoss="15.19" rerouteNo="0" devices="tripinfo_right_0_16" vType="passenger" speedFactor="0.88" vaporized=""/>
    <tripinfo id="left_0_20" depart="120.00" departLane="52o_0" departPos="5.10" departSpeed="0.00" departDelay="0.00" arrival="165.00" arrivalLane="51i_0" arrivalPos="10.00" arrivalSpeed="11.19" duration="45.00" routeLength="415.10" waitingTime="0.00" waitingCount="0" stopTime="0.00" timeLoss="14.22" rerouteNo="0" devices="tripinfo_left_0_20" vType="passenger" speedFactor="1.02" vaporized=""/>
    <tripinfo id="left_0_21" depart="126.00" departLane="52o_0" departPos="5.10" departSpeed="0.00" departDelay="3.00" arrival="171.00" arrivalLane="51i_0" arrivalPos="10.00" arrivalSpeed="11.15" duration="45.00" routeLength="415.10" waitingTime="0.00" waitingCount="0" stopTime="0.00" timeLoss="14.09" rerouteNo="0" devices="tripinfo_left_0_21" vType="passenger" speedFactor="1.01" vaporized=""/>
    <tripinfo id="right_0_23" depart="126.00" departLane="51o_0" departPos="5.10" departSpeed="0.00" departDelay="0.00" arrival="174.00" arrivalLane="52i_0" arrivalPos="10.00" arrivalSpeed="10.56" duration="48.00" routeLength="415.10" waitingTime="0.00" waitingCount="0" stopTime="0.00" timeLoss="14.29" rerouteNo="0" devices="tripinfo_right_0_23" vType="passenger" speedFactor="0.89" vaporized=""/>
    <tripinfo id="left_0_22" depart="131.00" departLane="52o_0" departPos="5.10" departSpeed="0.00" departDelay="6.00" arrival="178.00" arrivalLane="51i_0" arrivalPos="10.00" arrivalSpeed="11.33" duration="47.00" routeLength="415.10" waitingTime="0.00" waitingCount="0" stopTime="0.00" timeLoss="14.99" rerouteNo="0" devices="tripinfo_left_0_22" vType="passenger" speedFactor="0.98" vaporized=""/>
    <tripinfo id="right_0_25" depart="132.00" departLane="51o_0" departPos="5.10" departSpeed="0.00" departDelay="0.00" arrival="180.00" arrivalLane="52i_0" arrivalPos="10.00" arrivalSpeed="9.98" duration="48.00" routeLength="415.10" waitingTime="0.00" waitingCount="0" stopTime="0.00" timeLoss="14.38" rerouteNo="0" devices="tripinfo_right_0_25" vType="passenger" speedFactor="0.87" vaporized=""/>
    <tripinfo id="down_0_12" depart="72.00" departLane="54o_0" departPos="5.10" departSpeed="0.00" departDelay="0.00" arrival="194.00" arrivalLane="53i_0" arrivalPos="10.00" arrivalSpeed="11.39" duration="122.00" routeLength="415.10" waitingTime="66.00" waitingCount="1" stopTime="0.00" timeLoss="91.82" rerouteNo="0" devices="tripinfo_down_0_12" vType="passenger" speedFactor="1.05" vaporized=""/>
    <tripinfo id="up_0_18" depart="103.00" departLane="53o_0" departPos="5.10" departSpeed="0.00" departDelay="0.00" arrival="196.00" arrivalLane="54i_0" arrivalPos="10.00" arrivalSpeed="10.65" duration="93.00" routeLength="415.10" waitingTime="36.00" waitingCount="1" stopTime="0.00" timeLoss="60.24" rerouteNo="0" devices="tripinfo_up_0_18" vType="passenger" speedFactor="0.94" vaporized=""/>
    <tripinfo id="up_0_19" depart="108.00" departLane="53o_0" departPos="5.10" departSpeed="0.00" departDelay="2.00" arrival="197.00" arrivalLane="54i_0" arrivalPos="10.00" arrivalSpeed="10.65" duration="89.00" routeLength="415.10" waitingTime="32.00" waitingCount="1" stopTime="0.00" timeLoss="60.66" rerouteNo="0" devices="tripinfo_up_0_19" vType="passenger" speedFactor="1.16" vaporized=""/>
    <tripinfo id="down_0_15" depart="85.00" departLane="54o_0" departPos="5.10" departSpeed="0.00" departDelay="0.00" arrival="199.00" arrivalLane="53i_0" arrivalPos="10.00" arrivalSpeed="10.69" duration="114.00" routeLength="415.10" waitingTime="56.00" waitingCount="1" stopTime="0.00" timeLoss="81.47" rerouteNo="0" devices="tripinfo_down_0_15" vType="passenger" speedFactor="0.93" vaporized=""/>
    <tripinfo id="up_0_26" depart="135.00" departLane="53o_0" departPos="5.10" departSpeed="0.00" departDelay="0.00" arrival="200.00" arrivalLane="54i_0" arrivalPos="10.00" arrivalSpeed="10.77" duration="65.00" routeLength="415.10" waitingTime="7.00" waitingCount="1" stopTime="0.00" timeLoss="31.97" rerouteNo="0" devices="tripinfo_up_0_26" vType="passenger" speedFactor="0.92" vaporized=""/>
    <tripinfo id="down_0_17" depart="98.00" departLane="54o_0" departPos="5.10" departSpeed="0.00" departDelay="0.00" arrival="201.00" arrivalLane="53i_0" arrivalPos="10.00" arrivalSpeed="10.93" duration="103.00" routeLength="415.10" waitingTime="44.00" waitingCount="1" stopTime="0.00" timeLoss="70.49" rerouteNo="0" devices="tripinfo_down_0_17" vType="passenger" speedFactor="0.94" vaporized=""/>
    <tripinfo id="down_0_24" depart="129.00" departLane="54o_0" departPos="5.10" departSpeed="0.00" departDelay="0.00" arrival="205.00" arrivalLane="53i_0" arrivalPos="10.00" arrivalSpeed="9.40" duration="76.00" routeLength="415.10" waitingTime="13.00" waitingCount="1" stopTime="0.00" timeLoss="40.14" rerouteNo="0" devices="tripinfo_down_0_24" vType="passenger" speedFactor="0.83" vaporized=""/>
    <tripinfo id="down_0_28" depart="149.00" departLane="54o_0" departPos="5.10" departSpeed="0.00" departDelay="0.00" arrival="207.00" arrivalLane="53i_0" arrivalPos="10.00" arrivalSpeed="10.07" duration="58.00" routeLength="415.10" waitingTime="0.00" waitingCount="0" stopTime="0.00" timeLoss="28.70" rerouteNo="0" devices="tripinfo_down_0_28" vType="passenger" speedFactor="1.13" vaporized=""/>
    <tripinfo id="right_0_30" depart="171.00" departLane="51o_0" departPos="5.10" departSpeed="0.00" departDelay="0.00" arrival="214.00" arrivalLane="52i_0" arrivalPos="10.00" arrivalSpeed="13.63" duration="43.00" routeLength="415.10" waitingTime="0.00" waitingCount="0" stopTime="0.00" timeLoss="14.20" rerouteNo="0" devices="tripinfo_right_0_30" vType="passenger" speedFactor="1.18" vaporized=""/>
    <tripinfo id="left_0_27" depart="147.00" departLane="52o_0" departPos="5.10" departSpeed="0.00" departDelay="0.00" arrival="216.00" arrivalLane="51i_0" arrivalPos="10.00" arrivalSpeed="10.72" duration="69.00" routeLength="415.10" waitingTime="12.00" waitingCount="1" stopTime="0.00" timeLoss="36.64" rerouteNo="0" devices="tripinfo_left_0_27" vType="passenger" speedFactor="0.95" vaporized=""/>
    <tripinfo id="left_0_29" depart="159.00" departLane="52o_0" departPos="5.10" departSpeed="0.00" departDelay="0.00" arrival="218.00" arrivalLane="51i_0" arrivalPos="10.00" arrivalSpeed="10.92" duration="59.00" routeLength="415.10" waitingTime="0.00" waitingCount="0" stopTime="0.00" timeLoss="26.89" rerouteNo="0" devices="tripinfo_left_0_29" vType="passenger" speedFactor="0.93" vaporized=""/>
    <tripinfo id="right_0_31" depart="179.00" departLane="51o_0" departPos="5.10" departSpeed="0.00" departDelay="0.00" arrival="222.00" arrivalLane="52i_0" arrivalPos="10.00" arrivalSpeed="13.34" duration="43.00" routeLength="415.10" waitingTime="0.00" waitingCount="0" stopTime="0.00" timeLoss="13.89" rerouteNo="0" devices="tripinfo_right_0_31" vType="passenger" speedFactor="1.15" vaporized=""/>
    <tripinfo id="right_0_32" depart="184.00" departLane="51o_0" departPos="5.10" departSpeed="0.00" departDelay="2.00" arrival="230.00" arrivalLane="52i_0" arrivalPos="10.00" arrivalSpeed="11.40" duration="46.00" routeLength="415.10" waitingTime="0.00" waitingCount="0" stopTime="0.00" timeLoss="14.70" rerouteNo="0" devices="tripinfo_right_0_32" vType="passenger" speedFactor="1.01" vaporized=""/>
    <tripinfo id="left_0_33" depart="204.00" departLane="52o_0" departPos="5.10" departSpeed="0.00" departDelay="0.00" arrival="247.00" arrivalLane="51i_0" arrivalPos="10.00" arrivalSpeed="13.61" duration="43.00" routeLength="415.10" waitingTime="0.00" waitingCount="0" stopTime="0.00" timeLoss="14.25" rerouteNo="0" devices="tripinfo_left_0_33" vType="passenger" speedFactor="1.17" vaporized=""/>
    <tripinfo id="up_0_35" depart="212.00" departLane="53o_0" departPos="5.10" departSpeed="0.00" departDelay="0.00" arrival="270.00" arrivalLane="54i_0" arrivalPos="10.00" arrivalSpeed="11.09" duration="58.00" routeLength="415.10" waitingTime="3.00" waitingCount="1" stopTime="0.00" timeLoss="27.45" rerouteNo="0" devices="tripinfo_up_0_35" vType="passenger" speedFactor="1.02" vaporized=""/>
    <tripinfo id="down_0_34" depart="206.00" departLane="54o_0" departPos="5.10" departSpeed="0.00" departDelay="0.00" arrival="271.00" arrivalLane="53i_0" arrivalPos="10.00" arrivalSpeed="11.28" duration="65.00" routeLength="415.10" waitingTime="9.00" waitingCount="1" stopTime="0.00" timeLoss="33.66" rerouteNo="0" devices="tripinfo_down_0_34" vType="passenger" speedFactor="0.99" vaporized=""/>
    <tripinfo id="down_0_37" depart="220.00" departLane="54o_0" departPos="5.10" departSpeed="0.00" departDelay="0.00" arrival="272.00" arrivalLane="53i_0" arrivalPos="10.00" arrivalSpeed="11.59" duration="52.00" routeLength="415.10" waitingTime="0.00" waitingCount="0" stopTime="0.00" timeLoss="23.90" rerouteNo="0" devices="tripinfo_down_0_37" vType="passenger" speedFactor="1.18" vaporized=""/>
    <tripinfo id="down_0_40" depart="241.00" departLane="54o_0" departPos="5.10" departSpeed="0.00" departDelay="0.00" arrival="286.00" arrivalLane="53i_0" arrivalPos="10.00" arrivalSpeed="12.06" duration="45.00" routeLength="415.10" waitingTime="0.00" waitingCount="0" stopTime="0.00" timeLoss="14.56" rerouteNo="0" devices="tripinfo_down_0_40" vType="passenger" speedFactor="1.03" vaporized=""/>
    <tripinfo id="up_0_41" depart="248.00" departLane="53o_0" departPos="5.10" departSpeed="0.00" departDelay="0.00" arrival="295.00" arrivalLane="54i_0" arrivalPos="10.00" arrivalSpeed="10.94" duration="47.00" routeLength="415.10" waitingTime="0.00" waitingCount="0" stopTime="0.00" timeLoss="14.52" rerouteNo="0" devices="tripinfo_up_0_41" vType="passenger" speedFactor="0.96" vaporized=""/>
    <tripinfo id="down_0_43" depart="256.00" departLane="54o_0" departPos="5.10" departSpeed="0.00" departDelay="0.00" arrival="301.00" arrivalLane="53i_0" arrivalPos="10.00" arrivalSpeed="12.03" duration="45.00" routeLength="415.10" waitingTime="0.00" waitingCount="0" stopTime="0.00" timeLoss="14.24" rerouteNo="0" devices="tripinfo_down_0_43" vType="passenger" speedFactor="1.04" vaporized=""/>
    <tripinfo id="down_0_45" depart="261.00" departLane="54o_0" departPos="5.10" departSpeed="0.00" departDelay="3.00" arrival="306.00" arrivalLane="53i_0" arrivalPos="10.00" arrivalSpeed="12.61" duration="45.00" routeLength="415.10" waitingTime="0.00" waitingCount="0" stopTime="0.00" timeLoss="15.17" rerouteNo="0" devices="tripinfo_down_0_45" vType="passenger" speedFactor="1.09" vaporized=""/>
    <tripinfo id="left_0_42" depart="253.00" departLane="52o_0" departPos="5.10" departSpeed="0.00" departDelay="0.00" arrival="335.00" arrivalLane="51i_0" arrivalPos="10.00" arrivalSpeed="12.70" duration="82.00" routeLength="415.10" waitingTime="27.00" waitingCount="1" stopTime="0.00" timeLoss="52.06" rerouteNo="0" devices="tripinfo_left_0_42" vType="passenger" speedFactor="1.09" vaporized=""/>
    <tripinfo id="right_0_36" depart="216.00" departLane="51o_0" departPos="5.10" departSpeed="0.00" departDelay="0.00" arrival="336.00" arrivalLane="52i_0" arrivalPos="10.00" arrivalSpeed="11.41" duration="120.00" routeLength="415.10" waitingTime="63.00" waitingCount="1" stopTime="0.00" timeLoss="88.66" rerouteNo="0" devices="tripinfo_right_0_36" vType="passenger" speedFactor="0.97" vaporized=""/>
    <tripinfo id="left_0_44" depart="258.00" departLane="52o_0" departPos="5.10" departSpeed="0.00" departDelay="0.00" arrival="337.00" arrivalLane="51i_0" arrivalPos="10.00" arrivalSpeed="11.89" duration="79.00" routeLength="415.10" waitingTime="24.00" waitingCount="1" stopTime="0.00" timeLoss="48.70" rerouteNo="0" devices="tripinfo_left_0_44" vType="passenger" speedFactor="1.04" vaporized=""/>
    <tripinfo id="right_0_38" depart="227.00" departLane="51o_0" departPos="5.10" departSpeed="0.00" departDelay="0.00" arrival="338.00" arrivalLane="52i_0" arrivalPos="10.00" arrivalSpeed="12.00" duration="111.00" routeLength="415.10" waitingTime="54.00" waitingCount="1" stopTime="0.00" timeLoss="81.50" rerouteNo="0" devices="tripinfo_right_0_38" vType="passenger" speedFactor="1.10" vaporized=""/>
    <tripinfo id="left_0_46" depart="263.00" departLane="52o_0" departPos="5.10" departSpeed="0.00" departDelay="1.00" arrival="340.00" arrivalLane="51i_0" arrivalPos="10.00" arrivalSpeed="11.23" duration="77.00" routeLength="415.10" waitingTime="20.00" waitingCount="1" stopTime="0.00" timeLoss="45.58" rerouteNo="0" devices="tripinfo_left_0_46" vType="passenger" speedFactor="1.00" vaporized=""/>
    <tripinfo id="right_0_39" depart="239.00" departLane="51o_0" departPos="5.10" departSpeed="0.00" departDelay="0.00" arrival="342.00" arrivalLane="52i_0" arrivalPos="10.00" arrivalSpeed="10.30" duration="103.00" routeLength="415.10" waitingTime="44.00" waitingCount="1" stopTime="0.00" timeLoss="69.41" rerouteNo="0" devices="tripinfo_right_0_39" vType="passenger" speedFactor="0.90" vaporized=""/>
    <tripinfo id="left_0_47" depart="281.00" departLane="52o_0" departPos="5.10" departSpeed="0.00" departDelay="0.00" arrival="343.00" arrivalLane="51i_0" arrivalPos="10.00" arrivalSpeed="10.46" duration="62.00" routeLength="415.10" waitingTime="4.00" waitingCount="1" stopTime="0.00" timeLoss="28.97" rerouteNo="0" devices="tripinfo_left_0_47" vType="passenger" speedFactor="0.90" vaporized=""/>
    <tripinfo id="right_0_52" depart="292.00" departLane="51o_0" departPos="5.10" departSpeed="0.00" departDelay="0.00" arrival="343.00" arrivalLane="52i_0" arrivalPos="10.00" arrivalSpeed="10.87" duration="51.00" routeLength="415.10" waitingTime="0.00" waitingCount="0" stopTime="0.00" timeLoss="20.54" rerouteNo="0" devices="tripinfo_right_0_52" vType="passenger" speedFactor="1.02" vaporized=""/>
    <tripinfo id="right_0_54" depart="297.00" departLane="51o_0" departPos="5.10" departSpeed="0.00" departDelay="1.00" arrival="345.00" arrivalLane="52i_0" arrivalPos="10.00" arrivalSpeed="11.00" duration="48.00" routeLength="415.10" waitingTime="0.00" waitingCount="0" stopTime="0.00" timeLoss="17.01" rerouteNo="0" devices="tripinfo_right_0_54" vType="passenger" speedFactor="1.00" vaporized=""/>
    <tripinfo id="left_0_48" depart="286.00" departLane="52o_0" departPos="5.10" departSpeed="0.00" departDelay="3.00" arrival="346.00" arrivalLane="51i_0" arrivalPos="10.00" arrivalSpeed="10.08" duration="60.00" routeLength="415.10" waitingTime="0.00" waitingCount="0" stopTime="0.00" timeLoss="26.02" rerouteNo="0" devices="tripinfo_left_0_48" vType="passenger" speedFactor="0.88" vaporized=""/>
    <tripinfo id="left_0_50" depart="292.00" departLane="52o_0" departPos="5.10" departSpeed="0.00" departDelay="5.00" arrival="348.00" arrivalLane="51i_0" arrivalPos="10.00" arrivalSpeed="10.17" duration="56.00" routeLength="415.10" waitingTime="0.00" waitingCount="0" stopTime="0.00" timeLoss="21.80" rerouteNo="0" devices="tripinfo_left_0_50" vType="passenger" speedFactor="0.85" vaporized=""/>
    <tripinfo id="left_0_51" depart="297.00" departLane="52o_0" departPos="5.10" departSpeed="0.00" departDelay="6.00" arrival="350.00" arrivalLane="51i_0" arrivalPos="10.00" arrivalSpeed="10.65" duration="53.00" routeLength="415.10" waitingTime="0.00" waitingCount="0" stopTime="0.00" timeLoss="24.38" rerouteNo="0" devices="tripinfo_left_0_51" vType="passenger" speedFactor="1.17" vaporized=""/>
    <tripinfo id="left_0_55" depart="302.00" departLane="52o_0" departPos="5.10" departSpeed="0.00" departDelay="6.00" arrival="352.00" arrivalLane="51i_0" arrivalPos="10.00" arrivalSpeed="11.03" duration="50.00" routeLength="415.10" waitingTime="0.00" waitingCount="0" stopTime="0.00" timeLoss="18.37" rerouteNo="0" devices="tripinfo_left_0_55" vType="passenger" speedFactor="1.00" vaporized=""/>
    <tripinfo id="left_0_56" depart="307.00" departLane="52o_0" departPos="5.10" departSpeed="0.00" departDelay="9.00" arrival="355.00" arrivalLane="51i_0" arrivalPos="10.00" arrivalSpeed="10.65" duration="48.00" routeLength="415.10" waitingTime="0.00" waitingCount="0" stopTime="0.00" timeLoss="14.50" rerouteNo="0" devices="tripinfo_left_0_56" vType="passenger" speedFactor="0.90" vaporized=""/>
    <tripinfo id="down_0_53" depart="295.00" departLane="54o_0" departPos="5.10" departSpeed="0.00" departDelay="2.00" arrival="384.00" arrivalLane="53i_0" arrivalPos="10.00" arrivalSpeed="12.40" duration="89.00" routeLength="415.10" waitingTime="36.00" waitingCount="1" stopTime="0.00" timeLoss="59.72" rerouteNo="0" devices="tripinfo_down_0_53" vType="passenger" speedFactor="1.10" vaporized=""/>
    <tripinfo id="down_0_57" depart="330.00" departLane="54o_0" departPos="5.10" departSpeed="0.00" departDelay="0.00" arrival="386.00" arrivalLane="53i_0" arrivalPos="10.00" arrivalSpeed="13.22" duration="56.00" routeLength="415.10" waitingTime="1.00" waitingCount="1" stopTime="0.00" timeLoss="27.36" rerouteNo="0" devices="tripinfo_down_0_57" vType="passenger" speedFactor="1.14" vaporized=""/>
    <tripinfo id="up_0_49" depart="284.00" departLane="53o_0" departPos="5.10" departSpeed="0.00" departDelay="0.00" arrival="388.00" arrivalLane="54i_0" arrivalPos="10.00" arrivalSpeed="9.89" duration="104.00" routeLength="415.10" waitingTime="47.00" waitingCount="1" stopTime="0.00" timeLoss="69.49" rerouteNo="0" devices="tripinfo_up_0_49" vType="passenger" speedFactor="0.85" vaporized=""/>
    <tripinfo id="up_0_59" depart="344.00" departLane="53o_0" departPos="5.10" departSpeed="0.00" departDelay="0.00" arrival="390.00" arrivalLane="54i_0" arrivalPos="10.00" arrivalSpeed="10.55" duration="46.00" routeLength="415.10" waitingTime="0.00" waitingCount="0" stopTime="0.00" timeLoss="13.96" rerouteNo="0" devices="tripinfo_up_0_59" vType="passenger" speedFactor="0.97" vaporized=""/>
    <tripinfo id="up_0_60" depart="349.00" departLane="53o_0" departPos="5.10" departSpeed="0.00" departDelay="2.00" arrival="392.00" arrivalLane="54i_0" arrivalPos="10.00" arrivalSpeed="12.65" duration="43.00" routeLength="415.10" waitingTime="0.00" waitingCount="0" stopTime="0.00" timeLoss="13.36" rerouteNo="0" devices="tripinfo_up_0_60" vType="passenger" speedFactor="1.08" vaporized=""/>
    <tripinfo id="right_0_62" depart="352.00" departLane="51o_0" departPos="5.10" departSpeed="0.00" departDelay="0.00" arrival="459.00" arrivalLane="52i_0" arrivalPos="10.00" arrivalSpeed="11.62" duration="107.00" routeLength="415.10" waitingTime="51.00" waitingCount="1" stopTime="0.00" timeLoss="76.57" rerouteNo="0" devices="tripinfo_right_0_62" vType="passenger" speedFactor="1.02" vaporized=""/>
    <tripinfo id="left_0_58" depart="343.00" departLane="52o_0" departPos="5.10" departSpeed="0.00" departDelay="0.00" arrival="460.00" arrivalLane="51i_0" arrivalPos="10.00" arrivalSpeed="11.81" duration="117.00" routeLength="415.10" waitingTime="61.00" waitingCount="1" stopTime="0.00" timeLoss="86.31" rerouteNo="0" devices="tripinfo_left_0_58" vType="passenger" speedFactor="1.02" vaporized=""/>
    <tripinfo id="left_0_61" depart="350.00" departLane="52o_0" departPos="5.10" departSpeed="0.00" departDelay="0.00" arrival="462.00" arrivalLane="51i_0" arrivalPos="10.00" arrivalSpeed="12.40" duration="112.00" routeLength="415.10" waitingTime="56.00" waitingCount="1" stopTime="0.00" timeLoss="82.51" rerouteNo="0" devices="tripinfo_left_0_61" vType="passenger" speedFactor="1.12" vaporized=""/>
    <tripinfo id="left_0_63" depart="357.00" departLane="52o_0" departPos="5.10" departSpeed="0.00" departDelay="0.00" arrival="464.00" arrivalLane="51i_0" arrivalPos="10.00" arrivalSpeed="10.76" duration="107.00" routeLength="415.10" waitingTime="51.00" waitingCount="1" stopTime="0.00" timeLoss="75.81" rerouteNo="0" devices="tripinfo_left_0_63" vType="passenger" speedFactor="0.99" vaporized=""/>
    <tripinfo id="right_0_65" depart="363.00" departLane="51o_0" departPos="5.10" departSpeed="0.00" departDelay="0.00" arrival="464.00" arrivalLane="52i_0" arrivalPos="10.00" arrivalSpeed="10.55" duration="101.00" routeLength="415.10" waitingTime="42.00" waitingCount="1" stopTime="0.00" timeLoss="67.51" rerouteNo="0" devices="tripinfo_right_0_65" vType="passenger" speedFactor="0.88" vaporized=""/>
    <tripinfo id="right_0_68" depart="389.00" departLane="51o_0" departPos="5.10" departSpeed="0.00" departDelay="0.00" arrival="466.00" arrivalLane="52i_0" arrivalPos="10.00" arrivalSpeed="10.78" duration="77.00" routeLength="415.10" waitingTime="17.00" waitingCount="1" stopTime="0.00" timeLoss="46.51" rerouteNo="0" devices="tripinfo_right_0_68" vType="passenger" speedFactor="1.04" vaporized=""/>
    <tripinfo id="left_0_64" depart="362.00" departLane="52o_0" departPos="5.10" departSpeed="0.00" departDelay="3.00" arrival="467.00" arrivalLane="51i_0" arrivalPos="10.00" arrivalSpeed="11.01" duration="105.00" routeLength="415.10" waitingTime="47.00" waitingCount="1" stopTime="0.00" timeLoss="72.53" rerouteNo="0" devices="tripinfo_left_0_64" vType="passenger" speedFactor="0.94" vaporized=""/>
    <tripinfo id="right_0_69" depart="402.00" departLane="51o_0" departPos="5.10" departSpeed="0.00" departDelay="0.00" arrival="468.00" arrivalLane="52i_0" arrivalPos="10.00" arrivalSpeed="11.50" duration="66.00" routeLength="415.10" waitingTime="7.00" waitingCount="1" stopTime="0.00" timeLoss="34.91" rerouteNo="0" devices="tripinfo_right_0_69" vType="passenger" speedFactor="1.02" vaporized=""/>
    <tripinfo id="left_0_66" depart="372.00" departLane="52o_0" departPos="5.10" departSpeed="0.00" departDelay="0.00" arrival="470.00" arrivalLane="51i_0" arrivalPos="10.00" arrivalSpeed="10.31" duration="98.00" routeLength="415.10" waitingTime="39.00" waitingCount="1" stopTime="0.00" timeLoss="65.19" rerouteNo="0" devices="tripinfo_left_0_66" vType="passenger" speedFactor="0.91" vaporized=""/>
    <tripinfo id="left_0_67" depart="377.00" departLane="52o_0" departPos="5.10" departSpeed="0.00" departDelay="1.00" arrival="472.00" arrivalLane="51i_0" arrivalPos="10.00" arrivalSpeed="10.49" duration="95.00" routeLength="415.10" waitingTime="36.00" waitingCount="1" stopTime="0.00" timeLoss="62.28" rerouteNo="0" devices="tripinfo_left_0_67" vType="passenger" speedFactor="0.91" vaporized=""/>
    <tripinfo id="left_0_70" depart="402.00" departLane="52o_0" departPos="5.10" departSpeed="0.00" departDelay="0.00" arrival="474.00" arrivalLane="51i_0" arrivalPos="10.00" arrivalSpeed="11.24" duration="72.00" routeLength="415.10" waitingTime="12.00" waitingCount="1" stopTime="0.00" timeLoss="41.12" rerouteNo="0" devices="tripinfo_left_0_70" vType="passenger" speedFactor="1.02" vaporized=""/>
    <tripinfo id="left_0_71" depart="414.00" departLane="52o_0" departPos="5.10" departSpeed="0.00" departDelay="0.00" arrival="476.00" arrivalLane="51i_0" arrivalPos="10.00" arrivalSpeed="10.99" duration="62.00" routeLength="415.10" waitingTime="2.00" waitingCount="1" stopTime="0.00" timeLoss="30.02" rerouteNo="0" devices="tripinfo_left_0_71" vType="passenger" speedFactor="0.97" vaporized=""/>