<?xml version="1.0" encoding="UTF-8"?>

<!-- generated on Sun Oct 27 03:43:44 2019 by Eclipse SUMO GUI Version 1.2.0
<configuration xmlns:xsi="http://www.w3.org/2001/XMLSchema-instance" xsi:noNamespaceSchemaLocation="http://sumo.dlr.de/xsd/sumoConfiguration.xsd">

    <input>
        <net-file value="simulation_files/sumocfgs/../networks/single_shorter.net.xml"/>
        <route-files value="simulation_files/sumocfgs/../routes/single.rou.xml"/>
        <additional-files value="simulation_files/sumocfgs/../other/single.tlsp.xml"/>
    </input>

    <output>
        <tripinfo-output value="tripinfo_isolated2.xml"/>
    </output>

    <time>
        <begin value="0"/>
        <step-length value="1"/>
    </time>

    <report>
        <verbose value="true"/>
        <no-step-log value="true"/>
    </report>

    <traci_server>
        <remote-port value="54449"/>
    </traci_server>

    <gui_only>
        <tracker-interval value="1"/>
    </gui_only>

</configuration>
-->

<tripinfos xmlns:xsi="http://www.w3.org/2001/XMLSchema-instance" xsi:noNamespaceSchemaLocation="http://sumo.dlr.de/xsd/tripinfo_file.xsd">
    <tripinfo id="left_0_0" depart="0.00" departLane="52o_0" departPos="5.10" departSpeed="0.00" departDelay="0.00" arrival="45.00" arrivalLane="51i_0" arrivalPos="10.00" arrivalSpeed="11.69" duration="45.00" routeLength="415.10" waitingTime="0.00" waitingCount="0" stopTime="0.00" timeLoss="15.09" rerouteNo="0" devices="tripinfo_left_0_0" vType="passenger" speedFactor="1.06" vaporized=""/>
    <tripinfo id="right_0_2" depart="3.00" departLane="51o_0" departPos="5.10" departSpeed="0.00" departDelay="0.00" arrival="48.00" arrivalLane="52i_0" arrivalPos="10.00" arrivalSpeed="11.68" duration="45.00" routeLength="415.10" waitingTime="0.00" waitingCount="0" stopTime="0.00" timeLoss="14.06" rerouteNo="0" devices="tripinfo_right_0_2" vType="passenger" speedFactor="1.01" vaporized=""/>
    <tripinfo id="left_0_1" depart="5.00" departLane="52o_0" departPos="5.10" departSpeed="0.00" departDelay="3.00" arrival="52.00" arrivalLane="51i_0" arrivalPos="10.00" arrivalSpeed="10.87" duration="47.00" routeLength="415.10" waitingTime="0.00" waitingCount="0" stopTime="0.00" timeLoss="14.92" rerouteNo="0" devices="tripinfo_left_0_1" vType="passenger" speedFactor="0.94" vaporized=""/>
    <tripinfo id="up_0_3" depart="4.00" departLane="53o_0" departPos="5.10" departSpeed="0.00" departDelay="0.00" arrival="65.00" arrivalLane="54i_0" arrivalPos="10.00" arrivalSpeed="12.36" duration="61.00" routeLength="415.10" waitingTime="6.00" waitingCount="1" stopTime="0.00" timeLoss="30.94" rerouteNo="0" devices="tripinfo_up_0_3" vType="passenger" speedFactor="1.08" vaporized=""/>
    <tripinfo id="up_0_5" depart="16.00" departLane="53o_0" departPos="5.10" departSpeed="0.00" departDelay="0.00" arrival="70.00" arrivalLane="54i_0" arrivalPos="10.00" arrivalSpeed="9.55" duration="54.00" routeLength="415.10" waitingTime="0.00" waitingCount="0" stopTime="0.00" timeLoss="18.58" rerouteNo="0" devices="tripinfo_up_0_5" vType="passenger" speedFactor="0.83" vaporized=""/>
    <tripinfo id="left_0_4" depart="11.00" departLane="52o_0" departPos="5.10" departSpeed="0.00" departDelay="1.00" arrival="82.00" arrivalLane="51i_0" arrivalPos="10.00" arrivalSpeed="11.88" duration="71.00" routeLength="415.10" waitingTime="15.00" waitingCount="1" stopTime="0.00" timeLoss="40.30" rerouteNo="0" devices="tripinfo_left_0_4" vType="passenger" speedFactor="1.03" vaporized=""/>
    <tripinfo id="left_0_6" depart="22.00" departLane="52o_0" departPos="5.10" departSpeed="0.00" departDelay="0.00" arrival="84.00" arrivalLane="51i_0" arrivalPos="10.00" arrivalSpeed="12.12" duration="62.00" routeLength="415.10" waitingTime="5.00" waitingCount="1" stopTime="0.00" timeLoss="31.94" rerouteNo="0" devices="tripinfo_left_0_6" vType="passenger" speedFactor="1.05" vaporized=""/>
    <tripinfo id="right_0_7" depart="25.00" departLane="51o_0" departPos="5.10" departSpeed="0.00" departDelay="0.00" arrival="84.00" arrivalLane="52i_0" arrivalPos="10.00" arrivalSpeed="9.96" duration="59.00" routeLength="415.10" waitingTime="2.00" waitingCount="1" stopTime="0.00" timeLoss="25.38" rerouteNo="0" devices="tripinfo_right_0_7" vType="passenger" speedFactor="0.89" vaporized=""/>
    <tripinfo id="right_0_8" depart="31.00" departLane="51o_0" departPos="5.10" departSpeed="0.00" departDelay="0.00" arrival="86.00" arrivalLane="52i_0" arrivalPos="10.00" arrivalSpeed="10.66" duration="55.00" routeLength="415.10" waitingTime="0.00" waitingCount="0" stopTime="0.00" timeLoss="22.36" rerouteNo="0" devices="tripinfo_right_0_8" vType="passenger" speedFactor="0.94" vaporized=""/>
    <tripinfo id="left_0_10" depart="49.00" departLane="52o_0" departPos="5.10" departSpeed="0.00" departDelay="0.00" arrival="93.00" arrivalLane="51i_0" arrivalPos="10.00" arrivalSpeed="12.52" duration="44.00" routeLength="415.10" waitingTime="0.00" waitingCount="0" stopTime="0.00" timeLoss="14.00" rerouteNo="0" devices="tripinfo_left_0_10" vType="passenger" speedFactor="1.09" vaporized=""/>
    <tripinfo id="down_0_9" depart="31.00" departLane="54o_0" departPos="5.10" departSpeed="0.00" departDelay="0.00" arrival="120.00" arrivalLane="53i_0" arrivalPos="10.00" arrivalSpeed="10.06" duration="89.00" routeLength="415.10" waitingTime="30.00" waitingCount="1" stopTime="0.00" timeLoss="54.46" rerouteNo="0" devices="tripinfo_down_0_9" vType="passenger" speedFactor="0.86" vaporized=""/>
    <tripinfo id="down_0_12" depart="72.00" departLane="54o_0" departPos="5.10" departSpeed="0.00" departDelay="0.00" arrival="122.00" arrivalLane="53i_0" arrivalPos="10.00" arrivalSpeed="10.48" duration="50.00" routeLength="415.10" waitingTime="0.00" waitingCount="0" stopTime="0.00" timeLoss="19.26" rerouteNo="0" devices="tripinfo_down_0_12" vType="passenger" speedFactor="1.05" vaporized=""/>
    <tripinfo id="down_0_15" depart="85.00" departLane="54o_0" departPos="5.10" departSpeed="0.00" departDelay="0.00" arrival="132.00" arrivalLane="53i_0" arrivalPos="10.00" arrivalSpeed="11.01" duration="47.00" routeLength="415.10" waitingTime="0.00" waitingCount="0" stopTime="0.00" timeLoss="14.29" rerouteNo="0" devices="tripinfo_down_0_15" vType="passenger" speedFactor="0.93" vaporized=""/>
    <tripinfo id="down_0_17" depart="98.00" departLane="54o_0" departPos="5.10" departSpeed="0.00" departDelay="0.00" arrival="145.00" arrivalLane="53i_0" arrivalPos="10.00" arrivalSpeed="10.84" duration="47.00" routeLength="415.10" waitingTime="0.00" waitingCount="0" stopTime="0.00" timeLoss="14.65" rerouteNo="0" devices="tripinfo_down_0_17" vType="passenger" speedFactor="0.94" vaporized=""/>
    <tripinfo id="up_0_18" depart="103.00" departLane="53o_0" departPos="5.10" departSpeed="0.00" departDelay="0.00" arrival="148.00" arrivalLane="54i_0" arrivalPos="10.00" arrivalSpeed="10.86" duration="45.00" routeLength="415.10" waitingTime="0.00" waitingCount="0" stopTime="0.00" timeLoss="13.00" rerouteNo="0" devices="tripinfo_up_0_18" vType="passenger" speedFactor="0.94" vaporized=""/>
    <tripinfo id="up_0_19" depart="108.00" departLane="53o_0" departPos="5.10" departSpeed="0.00" departDelay="2.00" arrival="151.00" arrivalLane="54i_0" arrivalPos="10.00" arrivalSpeed="13.06" duration="43.00" routeLength="415.10" waitingTime="0.00" waitingCount="0" stopTime="0.00" timeLoss="14.01" rerouteNo="0" devices="tripinfo_up_0_19" vType="passenger" speedFactor="1.16" vaporized=""/>
    <tripinfo id="left_0_11" depart="67.00" departLane="52o_0" departPos="5.10" departSpeed="0.00" departDelay="0.00" arrival="173.00" arrivalLane="51i_0" arrivalPos="10.00" arrivalSpeed="12.05" duration="106.00" routeLength="415.10" waitingTime="50.00" waitingCount="1" stopTime="0.00" timeLoss="74.87" rerouteNo="0" devices="tripinfo_left_0_11" vType="passenger" speedFactor="1.03" vaporized=""/>
    <tripinfo id="right_0_14" depart="82.00" departLane="51o_0" departPos="5.10" departSpeed="0.00" departDelay="1.00" arrival="173.00" arrivalLane="52i_0" arrivalPos="10.00" arrivalSpeed="11.28" duration="91.00" routeLength="415.10" waitingTime="36.00" waitingCount="1" stopTime="0.00" timeLoss="59.56" rerouteNo="0" devices="tripinfo_right_0_14" vType="passenger" speedFactor="0.99" vaporized=""/>
    <tripinfo id="left_0_13" depart="74.00" departLane="52o_0" departPos="5.10" departSpeed="0.00" departDelay="0.00" arrival="174.00" arrivalLane="51i_0" arrivalPos="10.00" arrivalSpeed="11.71" duration="100.00" routeLength="415.10" waitingTime="45.00" waitingCount="1" stopTime="0.00" timeLoss="71.07" rerouteNo="0" devices="tripinfo_left_0_13" vType="passenger" speedFactor="1.12" vaporized=""/>
    <tripinfo id="left_0_20" depart="120.00" departLane="52o_0" departPos="5.10" departSpeed="0.00" departDelay="0.00" arrival="176.00" arrivalLane="51i_0" arrivalPos="10.00" arrivalSpeed="11.45" duration="56.00" routeLength="415.10" waitingTime="0.00" waitingCount="0" stopTime="0.00" timeLoss="25.47" rerouteNo="0" devices="tripinfo_left_0_20" vType="passenger" speedFactor="1.02" vaporized=""/>
    <tripinfo id="right_0_16" depart="93.00" departLane="51o_0" departPos="5.10" departSpeed="0.00" departDelay="1.00" arrival="177.00" arrivalLane="52i_0" arrivalPos="10.00" arrivalSpeed="10.21" duration="84.00" routeLength="415.10" waitingTime="24.00" waitingCount="1" stopTime="0.00" timeLoss="50.01" rerouteNo="0" devices="tripinfo_right_0_16" vType="passenger" speedFactor="0.88" vaporized=""/>
    <tripinfo id="left_0_21" depart="125.00" departLane="52o_0" departPos="5.10" departSpeed="0.00" departDelay="2.00" arrival="178.00" arrivalLane="51i_0" arrivalPos="10.00" arrivalSpeed="11.04" duration="53.00" routeLength="415.10" waitingTime="0.00" waitingCount="0" stopTime="0.00" timeLoss="22.20" rerouteNo="0" devices="tripinfo_left_0_21" vType="passenger" speedFactor="1.01" vaporized=""/>
    <tripinfo id="right_0_23" depart="126.00" departLane="51o_0" departPos="5.10" departSpeed="0.00" departDelay="0.00" arrival="178.00" arrivalLane="52i_0" arrivalPos="10.00" arrivalSpeed="10.31" duration="52.00" routeLength="415.10" waitingTime="0.00" waitingCount="0" stopTime="0.00" timeLoss="18.98" rerouteNo="0" devices="tripinfo_right_0_23" vType="passenger" speedFactor="0.89" vaporized=""/>
    <tripinfo id="left_0_22" depart="130.00" departLane="52o_0" departPos="5.10" departSpeed="0.00" departDelay="5.00" arrival="181.00" arrivalLane="51i_0" arrivalPos="10.00" arrivalSpeed="11.11" duration="51.00" routeLength="415.10" waitingTime="1.00" waitingCount="1" stopTime="0.00" timeLoss="19.11" rerouteNo="0" devices="tripinfo_left_0_22" vType="passenger" speedFactor="0.98" vaporized=""/>
    <tripinfo id="right_0_25" depart="132.00" departLane="51o_0" departPos="5.10" departSpeed="0.00" departDelay="0.00" arrival="181.00" arrivalLane="52i_0" arrivalPos="10.00" arrivalSpeed="9.71" duration="49.00" routeLength="415.10" waitingTime="0.00" waitingCount="0" stopTime="0.00" timeLoss="14.70" rerouteNo="0" devices="tripinfo_right_0_25" vType="passenger" speedFactor="0.87" vaporized=""/>
    <tripinfo id="up_0_26" depart="135.00" departLane="53o_0" departPos="5.10" departSpeed="0.00" departDelay="0.00" arrival="195.00" arrivalLane="54i_0" arrivalPos="10.00" arrivalSpeed="10.78" duration="60.00" routeLength="415.10" waitingTime="2.00" waitingCount="1" stopTime="0.00" timeLoss="27.24" rerouteNo="0" devices="tripinfo_up_0_26" vType="passenger" speedFactor="0.92" vaporized=""/>
    <tripinfo id="down_0_24" depart="129.00" departLane="54o_0" departPos="5.10" departSpeed="0.00" departDelay="0.00" arrival="196.00" arrivalLane="53i_0" arrivalPos="10.00" arrivalSpeed="9.51" duration="67.00" routeLength="415.10" waitingTime="8.00" waitingCount="1" stopTime="0.00" timeLoss="31.48" rerouteNo="0" devices="tripinfo_down_0_24" vType="passenger" speedFactor="0.83" vaporized=""/>
    <tripinfo id="down_0_28" depart="151.00" departLane="54o_0" departPos="5.10" departSpeed="0.00" departDelay="2.00" arrival="198.00" arrivalLane="53i_0" arrivalPos="10.00" arrivalSpeed="9.71" duration="47.00" routeLength="415.10" waitingTime="0.00" waitingCount="0" stopTime="0.00" timeLoss="17.78" rerouteNo="0" devices="tripinfo_down_0_28" vType="passenger" speedFactor="1.13" vaporized=""/>
    <tripinfo id="down_0_34" depart="206.00" departLane="54o_0" departPos="5.10" departSpeed="0.00" departDelay="0.00" arrival="251.00" arrivalLane="53i_0" arrivalPos="10.00" arrivalSpeed="10.85" duration="45.00" routeLength="415.10" waitingTime="0.00" waitingCount="0" stopTime="0.00" timeLoss="13.96" rerouteNo="0" devices="tripinfo_down_0_34" vType="passenger" speedFactor="0.99" vaporized=""/>
    <tripinfo id="up_0_35" depart="212.00" departLane="53o_0" departPos="5.10" departSpeed="0.00" departDelay="0.00" arrival="257.00" arrivalLane="54i_0" arrivalPos="10.00" arrivalSpeed="11.75" duration="45.00" routeLength="415.10" waitingTime="0.00" waitingCount="0" stopTime="0.00" timeLoss="13.60" rerouteNo="0" devices="tripinfo_up_0_35" vType="passenger" speedFactor="1.02" vaporized=""/>
    <tripinfo id="right_0_30" depart="174.00" departLane="51o_0" departPos="5.10" departSpeed="0.00" departDelay="3.00" arrival="270.00" arrivalLane="52i_0" arrivalPos="10.00" arrivalSpeed="13.80" duration="96.00" routeLength="415.10" waitingTime="40.00" waitingCount="1" stopTime="0.00" timeLoss="67.52" rerouteNo="0" devices="tripinfo_right_0_30" vType="passenger" speedFactor="1.18" vaporized=""/>
    <tripinfo id="left_0_27" depart="147.00" departLane="52o_0" departPos="5.10" departSpeed="0.00" departDelay="0.00" arrival="271.00" arrivalLane="51i_0" arrivalPos="10.00" arrivalSpeed="10.66" duration="124.00" routeLength="415.10" waitingTime="66.00" waitingCount="1" stopTime="0.00" timeLoss="92.20" rerouteNo="0" devices="tripinfo_left_0_27" vType="passenger" speedFactor="0.95" vaporized=""/>
    <tripinfo id="right_0_31" depart="181.00" departLane="51o_0" departPos="5.10" departSpeed="0.00" departDelay="2.00" arrival="272.00" arrivalLane="52i_0" arrivalPos="10.00" arrivalSpeed="13.35" duration="91.00" routeLength="415.10" waitingTime="35.00" waitingCount="1" stopTime="0.00" timeLoss="62.01" rerouteNo="0" devices="tripinfo_right_0_31" vType="passenger" speedFactor="1.15" vaporized=""/>
    <tripinfo id="left_0_29" depart="159.00" departLane="52o_0" departPos="5.10" departSpeed="0.00" departDelay="0.00" arrival="273.00" arrivalLane="51i_0" arrivalPos="10.00" arrivalSpeed="10.65" duration="114.00" routeLength="415.10" waitingTime="56.00" waitingCount="1" stopTime="0.00" timeLoss="81.89" rerouteNo="0" devices="tripinfo_left_0_29" vType="passenger" speedFactor="0.93" vaporized=""/>
    <tripinfo id="right_0_32" depart="186.00" departLane="51o_0" departPos="5.10" departSpeed="0.00" departDelay="4.00" arrival="275.00" arrivalLane="52i_0" arrivalPos="10.00" arrivalSpeed="11.63" duration="89.00" routeLength="415.10" waitingTime="30.00" waitingCount="1" stopTime="0.00" timeLoss="57.95" rerouteNo="0" devices="tripinfo_right_0_32" vType="passenger" speedFactor="1.01" vaporized=""/>
    <tripinfo id="left_0_33" depart="204.00" departLane="52o_0" departPos="5.10" departSpeed="0.00" departDelay="0.00" arrival="275.00" arrivalLane="51i_0" arrivalPos="10.00" arrivalSpeed="11.15" duration="71.00" routeLength="415.10" waitingTime="13.00" waitingCount="1" stopTime="0.00" timeLoss="42.60" rerouteNo="0" devices="tripinfo_left_0_33" vType="passenger" speedFactor="1.17" vaporized=""/>
    <tripinfo id="right_0_36" depart="216.00" departLane="51o_0" departPos="5.10" departSpeed="0.00" departDelay="0.00" arrival="277.00" arrivalLane="52i_0" arrivalPos="10.00" arrivalSpeed="11.30" duration="61.00" routeLength="415.10" waitingTime="2.00" waitingCount="1" stopTime="0.00" timeLoss="29.61" rerouteNo="0" devices="tripinfo_right_0_36" vType="passenger" speedFactor="0.97" vaporized=""/>
    <tripinfo id="right_0_38" depart="227.00" departLane="51o_0" departPos="5.10" departSpeed="0.00" departDelay="0.00" arrival="279.00" arrivalLane="52i_0" arrivalPos="10.00" arrivalSpeed="12.18" duration="52.00" routeLength="415.10" waitingTime="0.00" waitingCount="0" stopTime="0.00" timeLoss="22.41" rerouteNo="0" devices="tripinfo_right_0_38" vType="passenger" speedFactor="1.10" vaporized=""/>
    <tripinfo id="right_0_39" depart="239.00" departLane="51o_0" departPos="5.10" departSpeed="0.00" departDelay="0.00" arrival="286.00" arrivalLane="52i_0" arrivalPos="10.00" arrivalSpeed="10.29" duration="47.00" routeLength="415.10" waitingTime="0.00" waitingCount="0" stopTime="0.00" timeLoss="13.35" rerouteNo="0" devices="tripinfo_right_0_39" vType="passenger" speedFactor="0.90" vaporized=""/>
    <tripinfo id="left_0_42" depart="253.00" departLane="52o_0" departPos="5.10" departSpeed="0.00" departDelay="0.00" arrival="297.00" arrivalLane="51i_0" arrivalPos="10.00" arrivalSpeed="12.52" duration="44.00" routeLength="415.10" waitingTime="0.00" waitingCount="0" stopTime="0.00" timeLoss="14.59" rerouteNo="0" devices="tripinfo_left_0_42" vType="passenger" speedFactor="1.09" vaporized=""/>
    <tripinfo id="left_0_44" depart="258.00" departLane="52o_0" departPos="5.10" departSpeed="0.00" departDelay="0.00" arrival="302.00" arrivalLane="51i_0" arrivalPos="10.00" arrivalSpeed="12.24" duration="44.00" routeLength="415.10" waitingTime="0.00" waitingCount="0" stopTime="0.00" timeLoss="13.53" rerouteNo="0" devices="tripinfo_left_0_44" vType="passenger" speedFactor="1.04" vaporized=""/>
    <tripinfo id="left_0_46" depart="263.00" departLane="52o_0" departPos="5.10" departSpeed="0.00" departDelay="1.00" arrival="309.00" arrivalLane="51i_0" arrivalPos="10.00" arrivalSpeed="11.36" duration="46.00" routeLength="415.10" waitingTime="0.00" waitingCount="0" stopTime="0.00" timeLoss="14.44" rerouteNo="0" devices="tripinfo_left_0_46" vType="passenger" speedFactor="1.00" vaporized=""/>
    <tripinfo id="down_0_37" depart="220.00" departLane="54o_0" departPos="5.10" departSpeed="0.00" departDelay="0.00" arrival="336.00" arrivalLane="53i_0" arrivalPos="10.00" arrivalSpeed="13.79" duration="116.00" routeLength="415.10" waitingTime="62.00" waitingCount="1" stopTime="0.00" timeLoss="87.44" rerouteNo="0" devices="tripinfo_down_0_37" vType="passenger" speedFactor="1.18" vaporized=""/>
    <tripinfo id="up_0_41" depart="248.00" departLane="53o_0" departPos="5.10" departSpeed="0.00" departDelay="0.00" arrival="339.00" arrivalLane="54i_0" arrivalPos="10.00" arrivalSpeed="11.14" duration="91.00" routeLength="415.10" waitingTime="34.00" waitingCount="1" stopTime="0.00" timeLoss="59.52" rerouteNo="0" devices="tripinfo_up_0_41" vType="passenger" speedFactor="0.96" vaporized=""/>
    <tripinfo id="down_0_40" depart="241.00" departLane="54o_0" departPos="5.10" departSpeed="0.00" departDelay="0.00" arrival="341.00" arrivalLane="53i_0" arrivalPos="10.00" arrivalSpeed="11.97" duration="100.00" routeLength="415.10" waitingTime="42.00" waitingCount="1" stopTime="0.00" timeLoss="69.25" rerouteNo="0" devices="tripinfo_down_0_40" vType="passenger" speedFactor="1.03" vaporized=""/>
    <tripinfo id="down_0_43" depart="257.00" departLane="54o_0" departPos="5.10" departSpeed="0.00" departDelay="1.00" arrival="343.00" arrivalLane="53i_0" arrivalPos="10.00" arrivalSpeed="11.99" duration="86.00" routeLength="415.10" waitingTime="28.00" waitingCount="1" stopTime="0.00" timeLoss="55.42" rerouteNo="0" devices="tripinfo_down_0_43" vType="passenger" speedFactor="1.04" vaporized=""/>
    <tripinfo id="up_0_49" depart="284.00" departLane="53o_0" departPos="5.10" departSpeed="0.00" departDelay="0.00" arrival="343.00" arrivalLane="54i_0" arrivalPos="10.00" arrivalSpeed="9.77" duration="59.00" routeLength="415.10" waitingTime="0.00" waitingCount="0" stopTime="0.00" timeLoss="24.28" rerouteNo="0" devices="tripinfo_up_0_49" vType="passenger" speedFactor="0.85" vaporized=""/>
    <tripinfo id="down_0_45" depart="262.00" departLane="54o_0" departPos="5.10" departSpeed="0.00" departDelay="4.00" arrival="345.00" arrivalLane="53i_0" arrivalPos="10.00" arrivalSpeed="12.55" duration="83.00" routeLength="415.10" waitingTime="23.00" waitingCount="1" stopTime="0.00" timeLoss="52.87" rerouteNo="0" devices="tripinfo_down_0_45" vType="passenger" speedFactor="1.09" vaporized=""/>
    <tripinfo id="down_0_53" depart="293.00" departLane="54o_0" departPos="5.10" departSpeed="0.00" departDelay="0.00" arrival="346.00" arrivalLane="53i_0" arrivalPos="10.00" arrivalSpeed="12.87" duration="53.00" routeLength="415.10" waitingTime="0.00" waitingCount="0" stopTime="0.00" timeLoss="23.58" rerouteNo="0" devices="tripinfo_down_0_53" vType="passenger" speedFactor="1.10" vaporized=""/>
    <tripinfo id="down_0_57" depart="330.00" departLane="54o_0" departPos="5.10" departSpeed="0.00" departDelay="0.00" arrival="373.00" arrivalLane="53i_0" arrivalPos="10.00" arrivalSpeed="12.55" duration="43.00" routeLength="415.10" waitingTime="0.00" waitingCount="0" stopTime="0.00" timeLoss="14.19" rerouteNo="0" devices="tripinfo_down_0_57" vType="passenger" speedFactor="1.14" vaporized=""/>
    <tripinfo id="up_0_59" depart="346.00" departLane="53o_0" departPos="5.10" departSpeed="0.00" departDelay="2.00" arrival="392.00" arrivalLane="54i_0" arrivalPos="10.00" arrivalSpeed="11.10" duration="46.00" routeLength="415.10" waitingTime="0.00" waitingCount="0" stopTime="0.00" timeLoss="13.68" rerouteNo="0" devices="tripinfo_up_0_59" vType="passenger" speedFactor="0.97" vaporized=""/>
    <tripinfo id="left_0_47" depart="281.00" departLane="52o_0" departPos="5.10" departSpeed="0.00" departDelay="0.00" arrival="407.00" arrivalLane="51i_0" arrivalPos="10.00" arrivalSpeed="10.53" duration="126.00" routeLength="415.10" waitingTime="68.00" waitingCount="1" stopTime="0.00" timeLoss="93.20" rerouteNo="0" devices="tripinfo_left_0_47" vType="passenger" speedFactor="0.90" vaporized=""/>
    <tripinfo id="right_0_52" depart="292.00" departLane="51o_0" departPos="5.10" departSpeed="0.00" departDelay="0.00" arrival="407.00" arrivalLane="52i_0" arrivalPos="10.00" arrivalSpeed="11.88" duration="115.00" routeLength="415.10" waitingTime="58.00" waitingCount="1" stopTime="0.00" timeLoss="84.15" rerouteNo="0" devices="tripinfo_right_0_52" vType="passenger" speedFactor="1.02" vaporized=""/>
    <tripinfo id="left_0_48" depart="286.00" departLane="52o_0" departPos="5.10" departSpeed="0.00" departDelay="3.00" arrival="410.00" arrivalLane="51i_0" arrivalPos="10.00" arrivalSpeed="10.19" duration="124.00" routeLength="415.10" waitingTime="65.00" waitingCount="1" stopTime="0.00" timeLoss="90.45" rerouteNo="0" devices="tripinfo_left_0_48" vType="passenger" speedFactor="0.88" vaporized=""/>
    <tripinfo id="right_0_54" depart="297.00" departLane="51o_0" departPos="5.10" departSpeed="0.00" departDelay="1.00" arrival="410.00" arrivalLane="52i_0" arrivalPos="10.00" arrivalSpeed="11.38" duration="113.00" routeLength="415.10" waitingTime="55.00" waitingCount="1" stopTime="0.00" timeLoss="81.50" rerouteNo="0" devices="tripinfo_right_0_54" vType="passenger" speedFactor="1.00" vaporized=""/>
    <tripinfo id="right_0_62" depart="352.00" departLane="51o_0" departPos="5.10" departSpeed="0.00" departDelay="0.00" arrival="411.00" arrivalLane="52i_0" arrivalPos="10.00" arrivalSpeed="11.32" duration="59.00" routeLength="415.10" waitingTime="0.00" waitingCount="0" stopTime="0.00" timeLoss="28.54" rerouteNo="0" devices="tripinfo_right_0_62" vType="passenger" speedFactor="1.02" vaporized=""/>
    <tripinfo id="left_0_50" depart="291.00" departLane="52o_0" departPos="5.10" departSpeed="0.00" departDelay="4.00" arrival="413.00" arrivalLane="51i_0" arrivalPos="10.00" arrivalSpeed="9.83" duration="122.00" routeLength="415.10" waitingTime="62.00" waitingCount="1" stopTime="0.00" timeLoss="87.55" rerouteNo="0" devices="tripinfo_left_0_50" vType="passenger" speedFactor="0.85" vaporized=""/>
    <tripinfo id="left_0_51" depart="296.00" departLane="52o_0" departPos="5.10" departSpeed="0.00" departDelay="5.00" arrival="415.00" arrivalLane="51i_0" arrivalPos="10.00" arrivalSpeed="10.29" duration="119.00" routeLength="415.10" waitingTime="59.00" waitingCount="1" stopTime="0.00" timeLoss="90.28" rerouteNo="0" devices="tripinfo_left_0_51" vType="passenger" speedFactor="1.17" vaporized=""/>
    <tripinfo id="right_0_65" depart="363.00" departLane="51o_0" departPos="5.10" departSpeed="0.00" departDelay="0.00" arrival="415.00" arrivalLane="52i_0" arrivalPos="10.00" arrivalSpeed="10.32" duration="52.00" routeLength="415.10" waitingTime="0.00" waitingCount="0" stopTime="0.00" timeLoss="18.28" rerouteNo="0" devices="tripinfo_right_0_65" vType="passenger" speedFactor="0.88" vaporized=""/>
    <tripinfo id="left_0_55" depart="301.00" departLane="52o_0" departPos="5.10" departSpeed="0.00" departDelay="5.00" arrival="416.00" arrivalLane="51i_0" arrivalPos="10.00" arrivalSpeed="10.24" duration="115.00" routeLength="415.10" waitingTime="56.00" waitingCount="1" stopTime="0.00" timeLoss="84.01" rerouteNo="0" devices="tripinfo_left_0_55" vType="passenger" speedFactor="1.00" vaporized=""/>
    <tripinfo id="left_0_56" depart="306.00" departLane="52o_0" departPos="5.10" departSpeed="0.00" departDelay="8.00" arrival="418.00" arrivalLane="51i_0" arrivalPos="10.00" arrivalSpeed="10.64" duration="112.00" routeLength="415.10" waitingTime="52.00" waitingCount="1" stopTime="0.00" timeLoss="79.00" rerouteNo="0" devices="tripinfo_left_0_56" vType="passenger" speedFactor="0.90" vaporized=""/>
    <tripinfo id="left_0_58" depart="343.00" departLane="52o_0" departPos="5.10" departSpeed="0.00" departDelay="0.00" arrival="420.00" arrivalLane="51i_0" arrivalPos="10.00" arrivalSpeed="10.92" duration="77.00" routeLength="415.10" waitingTime="17.00" waitingCount="1" stopTime="0.00" timeLoss="46.42" rerouteNo="0" devices="tripinfo_left_0_58" vType="passenger" speedFactor="1.02" vaporized=""/>
    <tripinfo id="left_0_61" depart="350.00" departLane="52o_0" departPos="5.10" departSpeed="0.00" departDelay="0.00" arrival="422.00" arrivalLane="51i_0" arrivalPos="10.00" arrivalSpeed="11.56" duration="72.00" routeLength="415.10" waitingTime="13.00" waitingCount="1" stopTime="0.00" timeLoss="42.53" rerouteNo="0" devices="tripinfo_left_0_61" vType="passenger" speedFactor="1.12" vaporized=""/>
    <tripinfo id="left_0_63" depart="357.00" departLane="52o_0" departPos="5.10" departSpeed="0.00" departDelay="0.00" arrival="424.00" arrivalLane="51i_0" arrivalPos="10.00" arrivalSpeed="11.42" duration="67.00" routeLength="415.10" waitingTime="6.00" waitingCount="1" stopTime="0.00" timeLoss="35.15" rerouteNo="0" devices="tripinfo_left_0_63" vType="passenger" speedFactor="0.99" vaporized=""/>
    <tripinfo id="left_0_64" depart="362.00" departLane="52o_0" departPos="5.10" departSpeed="0.00" departDelay="3.00" arrival="426.00" arrivalLane="51i_0" arrivalPos="10.00" arrivalSpeed="10.75" duration="64.00" routeLength="415.10" waitingTime="2.00" waitingCount="1" stopTime="0.00" timeLoss="31.69" rerouteNo="0" devices="tripinfo_left_0_64" vType="passenger" speedFactor="0.94" vaporized=""/>
    <tripinfo id="left_0_66" depart="372.00" departLane="52o_0" departPos="5.10" departSpeed="0.00" departDelay="0.00" arrival="429.00" arrivalLane="51i_0" arrivalPos="10.00" arrivalSpeed="10.50" duration="57.00" routeLength="415.10" waitingTime="0.00" waitingCount="0" stopTime="0.00" timeLoss="23.61" rerouteNo="0" devices="tripinfo_left_0_66" vType="passenger" speedFactor="0.91" vaporized=""/>
    <tripinfo id="left_0_67" depart="377.00" departLane="52o_0" departPos="5.10" departSpeed="0.00" departDelay="1.00" arrival="431.00" arrivalLane="51i_0" arrivalPos="10.00" arrivalSpeed="10.74" duration="54.00" routeLength="415.10" waitingTime="0.00" waitingCount="0" stopTime="0.00" timeLoss="20.69" rerouteNo="0" devices="tripinfo_left_0_67" vType="passenger" speedFactor="0.91" vaporized=""/>
    <tripinfo id="right_0_68" depart="389.00" departLane="51o_0" departPos="5.10" departSpeed="0.00" departDelay="0.00" arrival="434.00" arrivalLane="52i_0" arrivalPos="10.00" arrivalSpeed="11.83" duration="45.00" routeLength="415.10" waitingTime="0.00" waitingCount="0" stopTime="0.00" timeLoss="14.96" rerouteNo="0" devices="tripinfo_right_0_68" vType="passenger" speedFactor="1.04" vaporized=""/>
    <tripinfo id="right_0_69" depart="402.00" departLane="51o_0" departPos="5.10" departSpeed="0.00" departDelay="0.00" arrival="447.00" arrivalLane="52i_0" arrivalPos="10.00" arrivalSpeed="11.88" duration="45.00" routeLength="415.10" waitingTime="0.00" waitingCount="0" stopTime="0.00" timeLoss="13.94" rerouteNo="0" devices="tripinfo_right_0_69" vType="passenger" speedFactor="1.02" vaporized=""/>
    <tripinfo id="left_0_70" depart="402.00" departLane="52o_0" departPos="5.10" departSpeed="0.00" departDelay="0.00" arrival="447.00" arrivalLane="51i_0" arrivalPos="10.00" arrivalSpeed="11.49" duration="45.00" routeLength="415.10" waitingTime="0.00" waitingCount="0" stopTime="0.00" timeLoss="13.98" rerouteNo="0" devices="tripinfo_left_0_70" vType="passenger" speedFactor="1.02" vaporized=""/>
    <tripinfo id="left_0_71" depart="415.00" departLane="52o_0" departPos="5.10" departSpeed="0.00" departDelay="1.00" arrival="461.00" arrivalLane="51i_0" arrivalPos="10.00" arrivalSpeed="11.31" duration="46.00" routeLength="415.10" waitingTime="0.00" waitingCount="0" stopTime="0.00" timeLoss="14.41" rerouteNo="0" devices="tripinfo_left_0_71" vType="passenger" speedFactor="0.97" vaporized=""/>
    <tripinfo id="down_0_75" depart="434.00" departLane="54o_0" departPos="5.10" departSpeed="0.00" departDelay="0.00" arrival="480.00" arrivalLane="53i_0" arrivalPos="10.00" arrivalSpeed="11.58" duration="46.00" routeLength="415.10" waitingTime="0.00" waitingCount="0" stopTime="0.00" timeLoss="14.90" rerouteNo="0" devices="tripinfo_down_0_75" vType="passenger" speedFactor="0.98" vaporized=""/>