<?xml version="1.0" encoding="UTF-8"?>

<!-- generated on Sat Oct 26 23:31:42 2019 by Eclipse SUMO GUI Version 1.2.0
<configuration xmlns:xsi="http://www.w3.org/2001/XMLSchema-instance" xsi:noNamespaceSchemaLocation="http://sumo.dlr.de/xsd/sumoConfiguration.xsd">

    <input>
        <net-file value="simulation_files/sumocfgs/../networks/single.net.xml"/>
        <route-files value="simulation_files/sumocfgs/../routes/single.rou.xml"/>
        <additional-files value="simulation_files/sumocfgs/../other/single.tlsp.xml"/>
    </input>

    <output>
        <tripinfo-output value="tripinfo_isolated2.xml"/>
    </output>

    <time>
        <begin value="0"/>
        <step-length value="1"/>
    </time>

    <report>
        <verbose value="true"/>
        <no-step-log value="true"/>
    </report>

    <traci_server>
        <remote-port value="46537"/>
    </traci_server>

    <gui_only>
        <tracker-interval value="1"/>
    </gui_only>

</configuration>
-->

<tripinfos xmlns:xsi="http://www.w3.org/2001/XMLSchema-instance" xsi:noNamespaceSchemaLocation="http://sumo.dlr.de/xsd/tripinfo_file.xsd">
    <tripinfo id="left_0_0" depart="0.00" departLane="52o_0" departPos="5.10" departSpeed="0.00" departDelay="0.00" arrival="88.00" arrivalLane="51i_0" arrivalPos="10.00" arrivalSpeed="12.27" duration="88.00" routeLength="1015.10" waitingTime="0.00" waitingCount="0" stopTime="0.00" timeLoss="14.64" rerouteNo="0" devices="tripinfo_left_0_0" vType="passenger" speedFactor="1.06" vaporized=""/>
    <tripinfo id="right_0_2" depart="3.00" departLane="51o_0" departPos="5.10" departSpeed="0.00" departDelay="0.00" arrival="94.00" arrivalLane="52i_0" arrivalPos="10.00" arrivalSpeed="11.56" duration="91.00" routeLength="1015.10" waitingTime="0.00" waitingCount="0" stopTime="0.00" timeLoss="14.86" rerouteNo="0" devices="tripinfo_right_0_2" vType="passenger" speedFactor="1.01" vaporized=""/>
    <tripinfo id="left_0_1" depart="5.00" departLane="52o_0" departPos="5.10" departSpeed="0.00" departDelay="3.00" arrival="99.00" arrivalLane="51i_0" arrivalPos="10.00" arrivalSpeed="10.79" duration="94.00" routeLength="1015.10" waitingTime="0.00" waitingCount="0" stopTime="0.00" timeLoss="14.80" rerouteNo="0" devices="tripinfo_left_0_1" vType="passenger" speedFactor="0.94" vaporized=""/>
    <tripinfo id="up_0_3" depart="4.00" departLane="53o_0" departPos="5.10" departSpeed="0.00" departDelay="0.00" arrival="108.00" arrivalLane="54i_0" arrivalPos="10.00" arrivalSpeed="12.31" duration="104.00" routeLength="1015.10" waitingTime="3.00" waitingCount="1" stopTime="0.00" timeLoss="31.10" rerouteNo="0" devices="tripinfo_up_0_3" vType="passenger" speedFactor="1.08" vaporized=""/>
    <tripinfo id="up_0_5" depart="16.00" departLane="53o_0" departPos="5.10" departSpeed="0.00" departDelay="0.00" arrival="120.00" arrivalLane="54i_0" arrivalPos="10.00" arrivalSpeed="9.93" duration="104.00" routeLength="1015.10" waitingTime="0.00" waitingCount="0" stopTime="0.00" timeLoss="17.89" rerouteNo="0" devices="tripinfo_up_0_5" vType="passenger" speedFactor="0.83" vaporized=""/>
    <tripinfo id="down_0_9" depart="31.00" departLane="54o_0" departPos="5.10" departSpeed="0.00" departDelay="0.00" arrival="131.00" arrivalLane="53i_0" arrivalPos="10.00" arrivalSpeed="9.90" duration="100.00" routeLength="1015.10" waitingTime="0.00" waitingCount="0" stopTime="0.00" timeLoss="15.91" rerouteNo="0" devices="tripinfo_down_0_9" vType="passenger" speedFactor="0.86" vaporized=""/>
    <tripinfo id="left_0_4" depart="10.00" departLane="52o_0" departPos="5.10" departSpeed="0.00" departDelay="0.00" arrival="151.00" arrivalLane="51i_0" arrivalPos="10.00" arrivalSpeed="11.85" duration="141.00" routeLength="1015.10" waitingTime="39.00" waitingCount="1" stopTime="0.00" timeLoss="66.53" rerouteNo="0" devices="tripinfo_left_0_4" vType="passenger" speedFactor="1.03" vaporized=""/>
    <tripinfo id="left_0_6" depart="22.00" departLane="52o_0" departPos="5.10" departSpeed="0.00" departDelay="0.00" arrival="153.00" arrivalLane="51i_0" arrivalPos="10.00" arrivalSpeed="12.17" duration="131.00" routeLength="1015.10" waitingTime="28.00" waitingCount="1" stopTime="0.00" timeLoss="56.87" rerouteNo="0" devices="tripinfo_left_0_6" vType="passenger" speedFactor="1.05" vaporized=""/>
    <tripinfo id="left_0_10" depart="49.00" departLane="52o_0" departPos="5.10" departSpeed="0.00" departDelay="0.00" arrival="155.00" arrivalLane="51i_0" arrivalPos="10.00" arrivalSpeed="12.47" duration="106.00" routeLength="1015.10" waitingTime="4.00" waitingCount="1" stopTime="0.00" timeLoss="33.25" rerouteNo="0" devices="tripinfo_left_0_10" vType="passenger" speedFactor="1.09" vaporized=""/>
    <tripinfo id="right_0_7" depart="25.00" departLane="51o_0" departPos="5.10" departSpeed="0.00" departDelay="0.00" arrival="156.00" arrivalLane="52i_0" arrivalPos="10.00" arrivalSpeed="9.99" duration="131.00" routeLength="1015.10" waitingTime="24.00" waitingCount="1" stopTime="0.00" timeLoss="49.54" rerouteNo="0" devices="tripinfo_right_0_7" vType="passenger" speedFactor="0.89" vaporized=""/>
    <tripinfo id="right_0_8" depart="31.00" departLane="51o_0" departPos="5.10" departSpeed="0.00" departDelay="0.00" arrival="158.00" arrivalLane="52i_0" arrivalPos="10.00" arrivalSpeed="10.59" duration="127.00" routeLength="1015.10" waitingTime="19.00" waitingCount="1" stopTime="0.00" timeLoss="48.09" rerouteNo="0" devices="tripinfo_right_0_8" vType="passenger" speedFactor="0.94" vaporized=""/>
    <tripinfo id="down_0_12" depart="72.00" departLane="54o_0" departPos="5.10" departSpeed="0.00" departDelay="0.00" arrival="161.00" arrivalLane="53i_0" arrivalPos="10.00" arrivalSpeed="12.13" duration="89.00" routeLength="1015.10" waitingTime="0.00" waitingCount="0" stopTime="0.00" timeLoss="15.00" rerouteNo="0" devices="tripinfo_down_0_12" vType="passenger" speedFactor="1.05" vaporized=""/>
    <tripinfo id="down_0_15" depart="85.00" departLane="54o_0" departPos="5.10" departSpeed="0.00" departDelay="0.00" arrival="179.00" arrivalLane="53i_0" arrivalPos="10.00" arrivalSpeed="10.72" duration="94.00" routeLength="1015.10" waitingTime="0.00" waitingCount="0" stopTime="0.00" timeLoss="14.08" rerouteNo="0" devices="tripinfo_down_0_15" vType="passenger" speedFactor="0.93" vaporized=""/>
    <tripinfo id="left_0_11" depart="67.00" departLane="52o_0" departPos="5.10" departSpeed="0.00" departDelay="0.00" arrival="197.00" arrivalLane="51i_0" arrivalPos="10.00" arrivalSpeed="11.82" duration="130.00" routeLength="1015.10" waitingTime="29.00" waitingCount="1" stopTime="0.00" timeLoss="54.56" rerouteNo="0" devices="tripinfo_left_0_11" vType="passenger" speedFactor="1.03" vaporized=""/>
    <tripinfo id="left_0_13" depart="74.00" departLane="52o_0" departPos="5.10" departSpeed="0.00" departDelay="0.00" arrival="198.00" arrivalLane="51i_0" arrivalPos="10.00" arrivalSpeed="12.04" duration="124.00" routeLength="1015.10" waitingTime="23.00" waitingCount="1" stopTime="0.00" timeLoss="53.00" rerouteNo="0" devices="tripinfo_left_0_13" vType="passenger" speedFactor="1.12" vaporized=""/>
    <tripinfo id="right_0_14" depart="81.00" departLane="51o_0" departPos="5.10" departSpeed="0.00" departDelay="0.00" arrival="198.00" arrivalLane="52i_0" arrivalPos="10.00" arrivalSpeed="11.79" duration="117.00" routeLength="1015.10" waitingTime="14.00" waitingCount="1" stopTime="0.00" timeLoss="40.41" rerouteNo="0" devices="tripinfo_right_0_14" vType="passenger" speedFactor="0.99" vaporized=""/>
    <tripinfo id="right_0_16" depart="92.00" departLane="51o_0" departPos="5.10" departSpeed="0.00" departDelay="0.00" arrival="206.00" arrivalLane="52i_0" arrivalPos="10.00" arrivalSpeed="10.32" duration="114.00" routeLength="1015.10" waitingTime="6.00" waitingCount="1" stopTime="0.00" timeLoss="31.18" rerouteNo="0" devices="tripinfo_right_0_16" vType="passenger" speedFactor="0.88" vaporized=""/>
    <tripinfo id="left_0_20" depart="120.00" departLane="52o_0" departPos="5.10" departSpeed="0.00" departDelay="0.00" arrival="211.00" arrivalLane="51i_0" arrivalPos="10.00" arrivalSpeed="11.75" duration="91.00" routeLength="1015.10" waitingTime="0.00" waitingCount="0" stopTime="0.00" timeLoss="15.05" rerouteNo="0" devices="tripinfo_left_0_20" vType="passenger" speedFactor="1.02" vaporized=""/>
    <tripinfo id="left_0_21" depart="125.00" departLane="52o_0" departPos="5.10" departSpeed="0.00" departDelay="2.00" arrival="216.00" arrivalLane="51i_0" arrivalPos="10.00" arrivalSpeed="11.72" duration="91.00" routeLength="1015.10" waitingTime="0.00" waitingCount="0" stopTime="0.00" timeLoss="15.16" rerouteNo="0" devices="tripinfo_left_0_21" vType="passenger" speedFactor="1.01" vaporized=""/>
    <tripinfo id="left_0_22" depart="130.00" departLane="52o_0" departPos="5.10" departSpeed="0.00" departDelay="5.00" arrival="223.00" arrivalLane="51i_0" arrivalPos="10.00" arrivalSpeed="11.11" duration="93.00" routeLength="1015.10" waitingTime="0.00" waitingCount="0" stopTime="0.00" timeLoss="15.91" rerouteNo="0" devices="tripinfo_left_0_22" vType="passenger" speedFactor="0.98" vaporized=""/>
    <tripinfo id="right_0_23" depart="126.00" departLane="51o_0" departPos="5.10" departSpeed="0.00" departDelay="0.00" arrival="225.00" arrivalLane="52i_0" arrivalPos="10.00" arrivalSpeed="10.25" duration="99.00" routeLength="1015.10" waitingTime="0.00" waitingCount="0" stopTime="0.00" timeLoss="17.04" rerouteNo="0" devices="tripinfo_right_0_23" vType="passenger" speedFactor="0.89" vaporized=""/>
    <tripinfo id="right_0_25" depart="132.00" departLane="51o_0" departPos="5.10" departSpeed="0.00" departDelay="0.00" arrival="230.00" arrivalLane="52i_0" arrivalPos="10.00" arrivalSpeed="10.15" duration="98.00" routeLength="1015.10" waitingTime="0.00" waitingCount="0" stopTime="0.00" timeLoss="14.96" rerouteNo="0" devices="tripinfo_right_0_25" vType="passenger" speedFactor="0.87" vaporized=""/>
    <tripinfo id="left_0_27" depart="147.00" departLane="52o_0" departPos="5.10" departSpeed="0.00" departDelay="0.00" arrival="240.00" arrivalLane="51i_0" arrivalPos="10.00" arrivalSpeed="10.77" duration="93.00" routeLength="1015.10" waitingTime="0.00" waitingCount="0" stopTime="0.00" timeLoss="14.01" rerouteNo="0" devices="tripinfo_left_0_27" vType="passenger" speedFactor="0.95" vaporized=""/>
    <tripinfo id="left_0_29" depart="159.00" departLane="52o_0" departPos="5.10" departSpeed="0.00" departDelay="0.00" arrival="253.00" arrivalLane="51i_0" arrivalPos="10.00" arrivalSpeed="10.95" duration="94.00" routeLength="1015.10" waitingTime="0.00" waitingCount="0" stopTime="0.00" timeLoss="13.95" rerouteNo="0" devices="tripinfo_left_0_29" vType="passenger" speedFactor="0.93" vaporized=""/>
    <tripinfo id="right_0_30" depart="171.00" departLane="51o_0" departPos="5.10" departSpeed="0.00" departDelay="0.00" arrival="255.00" arrivalLane="52i_0" arrivalPos="10.00" arrivalSpeed="13.01" duration="84.00" routeLength="1015.10" waitingTime="0.00" waitingCount="0" stopTime="0.00" timeLoss="14.74" rerouteNo="0" devices="tripinfo_right_0_30" vType="passenger" speedFactor="1.18" vaporized=""/>
    <tripinfo id="down_0_17" depart="98.00" departLane="54o_0" departPos="5.10" departSpeed="0.00" departDelay="0.00" arrival="283.00" arrivalLane="53i_0" arrivalPos="10.00" arrivalSpeed="11.09" duration="185.00" routeLength="1015.10" waitingTime="79.00" waitingCount="1" stopTime="0.00" timeLoss="106.00" rerouteNo="0" devices="tripinfo_down_0_17" vType="passenger" speedFactor="0.94" vaporized=""/>
    <tripinfo id="up_0_18" depart="103.00" departLane="53o_0" departPos="5.10" departSpeed="0.00" departDelay="0.00" arrival="283.00" arrivalLane="54i_0" arrivalPos="10.00" arrivalSpeed="10.66" duration="180.00" routeLength="1015.10" waitingTime="75.00" waitingCount="1" stopTime="0.00" timeLoss="100.73" rerouteNo="0" devices="tripinfo_up_0_18" vType="passenger" speedFactor="0.94" vaporized=""/>
    <tripinfo id="up_0_19" depart="108.00" departLane="53o_0" departPos="5.10" departSpeed="0.00" departDelay="2.00" arrival="285.00" arrivalLane="54i_0" arrivalPos="10.00" arrivalSpeed="11.04" duration="177.00" routeLength="1015.10" waitingTime="72.00" waitingCount="1" stopTime="0.00" timeLoss="106.74" rerouteNo="0" devices="tripinfo_up_0_19" vType="passenger" speedFactor="1.16" vaporized=""/>
    <tripinfo id="up_0_26" depart="135.00" departLane="53o_0" departPos="5.10" departSpeed="0.00" departDelay="0.00" arrival="288.00" arrivalLane="54i_0" arrivalPos="10.00" arrivalSpeed="10.55" duration="153.00" routeLength="1015.10" waitingTime="46.00" waitingCount="1" stopTime="0.00" timeLoss="72.88" rerouteNo="0" devices="tripinfo_up_0_26" vType="passenger" speedFactor="0.92" vaporized=""/>
    <tripinfo id="down_0_24" depart="129.00" departLane="54o_0" departPos="5.10" departSpeed="0.00" departDelay="0.00" arrival="291.00" arrivalLane="53i_0" arrivalPos="10.00" arrivalSpeed="9.40" duration="162.00" routeLength="1015.10" waitingTime="50.00" waitingCount="1" stopTime="0.00" timeLoss="75.32" rerouteNo="0" devices="tripinfo_down_0_24" vType="passenger" speedFactor="0.83" vaporized=""/>
    <tripinfo id="down_0_28" depart="149.00" departLane="54o_0" departPos="5.10" departSpeed="0.00" departDelay="0.00" arrival="293.00" arrivalLane="53i_0" arrivalPos="10.00" arrivalSpeed="10.21" duration="144.00" routeLength="1015.10" waitingTime="30.00" waitingCount="1" stopTime="0.00" timeLoss="73.12" rerouteNo="0" devices="tripinfo_down_0_28" vType="passenger" speedFactor="1.13" vaporized=""/>
    <tripinfo id="down_0_34" depart="206.00" departLane="54o_0" departPos="5.10" departSpeed="0.00" departDelay="0.00" arrival="297.00" arrivalLane="53i_0" arrivalPos="10.00" arrivalSpeed="11.45" duration="91.00" routeLength="1015.10" waitingTime="0.00" waitingCount="0" stopTime="0.00" timeLoss="14.40" rerouteNo="0" devices="tripinfo_down_0_34" vType="passenger" speedFactor="0.99" vaporized=""/>
    <tripinfo id="up_0_35" depart="212.00" departLane="53o_0" departPos="5.10" departSpeed="0.00" departDelay="0.00" arrival="302.00" arrivalLane="54i_0" arrivalPos="10.00" arrivalSpeed="11.56" duration="90.00" routeLength="1015.10" waitingTime="0.00" waitingCount="0" stopTime="0.00" timeLoss="14.78" rerouteNo="0" devices="tripinfo_up_0_35" vType="passenger" speedFactor="1.02" vaporized=""/>
    <tripinfo id="down_0_37" depart="220.00" departLane="54o_0" departPos="5.10" departSpeed="0.00" departDelay="0.00" arrival="303.00" arrivalLane="53i_0" arrivalPos="10.00" arrivalSpeed="13.66" duration="83.00" routeLength="1015.10" waitingTime="0.00" waitingCount="0" stopTime="0.00" timeLoss="13.52" rerouteNo="0" devices="tripinfo_down_0_37" vType="passenger" speedFactor="1.18" vaporized=""/>
    <tripinfo id="down_0_40" depart="241.00" departLane="54o_0" departPos="5.10" departSpeed="0.00" departDelay="0.00" arrival="331.00" arrivalLane="53i_0" arrivalPos="10.00" arrivalSpeed="11.92" duration="90.00" routeLength="1015.10" waitingTime="0.00" waitingCount="0" stopTime="0.00" timeLoss="15.56" rerouteNo="0" devices="tripinfo_down_0_40" vType="passenger" speedFactor="1.03" vaporized=""/>
    <tripinfo id="up_0_41" depart="248.00" departLane="53o_0" departPos="5.10" departSpeed="0.00" departDelay="0.00" arrival="342.00" arrivalLane="54i_0" arrivalPos="10.00" arrivalSpeed="10.84" duration="94.00" routeLength="1015.10" waitingTime="0.00" waitingCount="0" stopTime="0.00" timeLoss="15.65" rerouteNo="0" devices="tripinfo_up_0_41" vType="passenger" speedFactor="0.96" vaporized=""/>
    <tripinfo id="left_0_33" depart="206.00" departLane="52o_0" departPos="5.10" departSpeed="0.00" departDelay="2.00" arrival="345.00" arrivalLane="51i_0" arrivalPos="10.00" arrivalSpeed="13.39" duration="139.00" routeLength="1015.10" waitingTime="43.00" waitingCount="1" stopTime="0.00" timeLoss="69.35" rerouteNo="0" devices="tripinfo_left_0_33" vType="passenger" speedFactor="1.17" vaporized=""/>
    <tripinfo id="right_0_31" depart="179.00" departLane="51o_0" departPos="5.10" departSpeed="0.00" departDelay="0.00" arrival="347.00" arrivalLane="52i_0" arrivalPos="10.00" arrivalSpeed="13.40" duration="168.00" routeLength="1015.10" waitingTime="70.00" waitingCount="1" stopTime="0.00" timeLoss="97.98" rerouteNo="0" devices="tripinfo_right_0_31" vType="passenger" speedFactor="1.15" vaporized=""/>
    <tripinfo id="left_0_42" depart="253.00" departLane="52o_0" departPos="5.10" departSpeed="0.00" departDelay="0.00" arrival="349.00" arrivalLane="51i_0" arrivalPos="10.00" arrivalSpeed="12.28" duration="96.00" routeLength="1015.10" waitingTime="0.00" waitingCount="0" stopTime="0.00" timeLoss="23.67" rerouteNo="0" devices="tripinfo_left_0_42" vType="passenger" speedFactor="1.09" vaporized=""/>
    <tripinfo id="left_0_44" depart="258.00" departLane="52o_0" departPos="5.10" departSpeed="0.00" departDelay="0.00" arrival="352.00" arrivalLane="51i_0" arrivalPos="10.00" arrivalSpeed="11.36" duration="94.00" routeLength="1015.10" waitingTime="0.00" waitingCount="0" stopTime="0.00" timeLoss="19.86" rerouteNo="0" devices="tripinfo_left_0_44" vType="passenger" speedFactor="1.04" vaporized=""/>
    <tripinfo id="right_0_32" depart="184.00" departLane="51o_0" departPos="5.10" departSpeed="0.00" departDelay="2.00" arrival="354.00" arrivalLane="52i_0" arrivalPos="10.00" arrivalSpeed="11.50" duration="170.00" routeLength="1015.10" waitingTime="67.00" waitingCount="1" stopTime="0.00" timeLoss="93.93" rerouteNo="0" devices="tripinfo_right_0_32" vType="passenger" speedFactor="1.01" vaporized=""/>
    <tripinfo id="left_0_46" depart="263.00" departLane="52o_0" departPos="5.10" departSpeed="0.00" departDelay="1.00" arrival="356.00" arrivalLane="51i_0" arrivalPos="10.00" arrivalSpeed="11.72" duration="93.00" routeLength="1015.10" waitingTime="0.00" waitingCount="0" stopTime="0.00" timeLoss="16.82" rerouteNo="0" devices="tripinfo_left_0_46" vType="passenger" speedFactor="1.00" vaporized=""/>
    <tripinfo id="right_0_36" depart="216.00" departLane="51o_0" departPos="5.10" departSpeed="0.00" departDelay="0.00" arrival="357.00" arrivalLane="52i_0" arrivalPos="10.00" arrivalSpeed="11.05" duration="141.00" routeLength="1015.10" waitingTime="37.00" waitingCount="1" stopTime="0.00" timeLoss="63.43" rerouteNo="0" devices="tripinfo_right_0_36" vType="passenger" speedFactor="0.97" vaporized=""/>
    <tripinfo id="right_0_38" depart="227.00" departLane="51o_0" departPos="5.10" departSpeed="0.00" departDelay="0.00" arrival="359.00" arrivalLane="52i_0" arrivalPos="10.00" arrivalSpeed="11.50" duration="132.00" routeLength="1015.10" waitingTime="27.00" waitingCount="1" stopTime="0.00" timeLoss="59.70" rerouteNo="0" devices="tripinfo_right_0_38" vType="passenger" speedFactor="1.10" vaporized=""/>
    <tripinfo id="right_0_39" depart="240.00" departLane="51o_0" departPos="5.10" departSpeed="0.00" departDelay="1.00" arrival="364.00" arrivalLane="52i_0" arrivalPos="10.00" arrivalSpeed="10.40" duration="124.00" routeLength="1015.10" waitingTime="15.00" waitingCount="1" stopTime="0.00" timeLoss="43.19" rerouteNo="0" devices="tripinfo_right_0_39" vType="passenger" speedFactor="0.90" vaporized=""/>
    <tripinfo id="left_0_47" depart="281.00" departLane="52o_0" departPos="5.10" departSpeed="0.00" departDelay="0.00" arrival="378.00" arrivalLane="51i_0" arrivalPos="10.00" arrivalSpeed="10.35" duration="97.00" routeLength="1015.10" waitingTime="0.00" waitingCount="0" stopTime="0.00" timeLoss="15.90" rerouteNo="0" devices="tripinfo_left_0_47" vType="passenger" speedFactor="0.90" vaporized=""/>
    <tripinfo id="right_0_52" depart="292.00" departLane="51o_0" departPos="5.10" departSpeed="0.00" departDelay="0.00" arrival="382.00" arrivalLane="52i_0" arrivalPos="10.00" arrivalSpeed="11.59" duration="90.00" routeLength="1015.10" waitingTime="0.00" waitingCount="0" stopTime="0.00" timeLoss="14.57" rerouteNo="0" devices="tripinfo_right_0_52" vType="passenger" speedFactor="1.02" vaporized=""/>
    <tripinfo id="left_0_48" depart="286.00" departLane="52o_0" departPos="5.10" departSpeed="0.00" departDelay="3.00" arrival="384.00" arrivalLane="51i_0" arrivalPos="10.00" arrivalSpeed="9.89" duration="98.00" routeLength="1015.10" waitingTime="0.00" waitingCount="0" stopTime="0.00" timeLoss="15.62" rerouteNo="0" devices="tripinfo_left_0_48" vType="passenger" speedFactor="0.88" vaporized=""/>
    <tripinfo id="right_0_54" depart="297.00" departLane="51o_0" departPos="5.10" departSpeed="0.00" departDelay="1.00" arrival="388.00" arrivalLane="52i_0" arrivalPos="10.00" arrivalSpeed="11.62" duration="91.00" routeLength="1015.10" waitingTime="0.00" waitingCount="0" stopTime="0.00" timeLoss="14.37" rerouteNo="0" devices="tripinfo_right_0_54" vType="passenger" speedFactor="1.00" vaporized=""/>
    <tripinfo id="left_0_50" depart="291.00" departLane="52o_0" departPos="5.10" departSpeed="0.00" departDelay="4.00" arrival="391.00" arrivalLane="51i_0" arrivalPos="10.00" arrivalSpeed="9.86" duration="100.00" routeLength="1015.10" waitingTime="0.00" waitingCount="0" stopTime="0.00" timeLoss="15.55" rerouteNo="0" devices="tripinfo_left_0_50" vType="passenger" speedFactor="0.85" vaporized=""/>
    <tripinfo id="left_0_51" depart="296.00" departLane="52o_0" departPos="5.10" departSpeed="0.00" departDelay="5.00" arrival="393.00" arrivalLane="51i_0" arrivalPos="10.00" arrivalSpeed="10.56" duration="97.00" routeLength="1015.10" waitingTime="0.00" waitingCount="0" stopTime="0.00" timeLoss="27.09" rerouteNo="0" devices="tripinfo_left_0_51" vType="passenger" speedFactor="1.17" vaporized=""/>
    <tripinfo id="left_0_55" depart="301.00" departLane="52o_0" departPos="5.10" departSpeed="0.00" departDelay="5.00" arrival="394.00" arrivalLane="51i_0" arrivalPos="10.00" arrivalSpeed="10.48" duration="93.00" routeLength="1015.10" waitingTime="0.00" waitingCount="0" stopTime="0.00" timeLoss="16.67" rerouteNo="0" devices="tripinfo_left_0_55" vType="passenger" speedFactor="1.00" vaporized=""/>
    <tripinfo id="left_0_56" depart="306.00" departLane="52o_0" departPos="5.10" departSpeed="0.00" departDelay="8.00" arrival="402.00" arrivalLane="51i_0" arrivalPos="10.00" arrivalSpeed="10.27" duration="96.00" routeLength="1015.10" waitingTime="0.00" waitingCount="0" stopTime="0.00" timeLoss="14.99" rerouteNo="0" devices="tripinfo_left_0_56" vType="passenger" speedFactor="0.90" vaporized=""/>
    <tripinfo id="down_0_43" depart="256.00" departLane="54o_0" departPos="5.10" departSpeed="0.00" departDelay="0.00" arrival="411.00" arrivalLane="53i_0" arrivalPos="10.00" arrivalSpeed="11.19" duration="155.00" routeLength="1015.10" waitingTime="56.00" waitingCount="1" stopTime="0.00" timeLoss="80.68" rerouteNo="0" devices="tripinfo_down_0_43" vType="passenger" speedFactor="1.04" vaporized=""/>
    <tripinfo id="down_0_45" depart="261.00" departLane="54o_0" departPos="5.10" departSpeed="0.00" departDelay="3.00" arrival="413.00" arrivalLane="53i_0" arrivalPos="10.00" arrivalSpeed="12.54" duration="152.00" routeLength="1015.10" waitingTime="52.00" waitingCount="1" stopTime="0.00" timeLoss="79.60" rerouteNo="0" devices="tripinfo_down_0_45" vType="passenger" speedFactor="1.09" vaporized=""/>
    <tripinfo id="down_0_53" depart="293.00" departLane="54o_0" departPos="5.10" departSpeed="0.00" departDelay="0.00" arrival="415.00" arrivalLane="53i_0" arrivalPos="10.00" arrivalSpeed="12.66" duration="122.00" routeLength="1015.10" waitingTime="21.00" waitingCount="1" stopTime="0.00" timeLoss="49.48" rerouteNo="0" devices="tripinfo_down_0_53" vType="passenger" speedFactor="1.10" vaporized=""/>
    <tripinfo id="down_0_57" depart="330.00" departLane="54o_0" departPos="5.10" departSpeed="0.00" departDelay="0.00" arrival="416.00" arrivalLane="53i_0" arrivalPos="10.00" arrivalSpeed="12.41" duration="86.00" routeLength="1015.10" waitingTime="0.00" waitingCount="0" stopTime="0.00" timeLoss="15.49" rerouteNo="0" devices="tripinfo_down_0_57" vType="passenger" speedFactor="1.14" vaporized=""/>
    <tripinfo id="up_0_49" depart="284.00" departLane="53o_0" departPos="5.10" departSpeed="0.00" departDelay="0.00" arrival="420.00" arrivalLane="54i_0" arrivalPos="10.00" arrivalSpeed="9.83" duration="136.00" routeLength="1015.10" waitingTime="27.00" waitingCount="1" stopTime="0.00" timeLoss="51.98" rerouteNo="0" devices="tripinfo_up_0_49" vType="passenger" speedFactor="0.85" vaporized=""/>
    <tripinfo id="up_0_59" depart="344.00" departLane="53o_0" departPos="5.10" departSpeed="0.00" departDelay="0.00" arrival="437.00" arrivalLane="54i_0" arrivalPos="10.00" arrivalSpeed="10.95" duration="93.00" routeLength="1015.10" waitingTime="0.00" waitingCount="0" stopTime="0.00" timeLoss="15.13" rerouteNo="0" devices="tripinfo_up_0_59" vType="passenger" speedFactor="0.97" vaporized=""/>
    <tripinfo id="up_0_60" depart="349.00" departLane="53o_0" departPos="5.10" departSpeed="0.00" departDelay="2.00" arrival="439.00" arrivalLane="54i_0" arrivalPos="10.00" arrivalSpeed="12.03" duration="90.00" routeLength="1015.10" waitingTime="0.00" waitingCount="0" stopTime="0.00" timeLoss="16.70" rerouteNo="0" devices="tripinfo_up_0_60" vType="passenger" speedFactor="1.08" vaporized=""/>
    <tripinfo id="left_0_58" depart="343.00" departLane="52o_0" departPos="5.10" departSpeed="0.00" departDelay="0.00" arrival="469.00" arrivalLane="51i_0" arrivalPos="10.00" arrivalSpeed="11.58" duration="126.00" routeLength="1015.10" waitingTime="24.00" waitingCount="1" stopTime="0.00" timeLoss="50.73" rerouteNo="0" devices="tripinfo_left_0_58" vType="passenger" speedFactor="1.02" vaporized=""/>
    <tripinfo id="right_0_62" depart="352.00" departLane="51o_0" departPos="5.10" departSpeed="0.00" departDelay="0.00" arrival="469.00" arrivalLane="52i_0" arrivalPos="10.00" arrivalSpeed="11.62" duration="117.00" routeLength="1015.10" waitingTime="15.00" waitingCount="1" stopTime="0.00" timeLoss="41.60" rerouteNo="0" devices="tripinfo_right_0_62" vType="passenger" speedFactor="1.02" vaporized=""/>
    <tripinfo id="left_0_61" depart="350.00" departLane="52o_0" departPos="5.10" departSpeed="0.00" departDelay="0.00" arrival="470.00" arrivalLane="51i_0" arrivalPos="10.00" arrivalSpeed="11.80" duration="120.00" routeLength="1015.10" waitingTime="18.00" waitingCount="1" stopTime="0.00" timeLoss="48.93" rerouteNo="0" devices="tripinfo_left_0_61" vType="passenger" speedFactor="1.12" vaporized=""/>
    <tripinfo id="left_0_63" depart="359.00" departLane="52o_0" departPos="5.10" departSpeed="0.00" departDelay="2.00" arrival="475.00" arrivalLane="51i_0" arrivalPos="10.00" arrivalSpeed="11.40" duration="116.00" routeLength="1015.10" waitingTime="10.00" waitingCount="1" stopTime="0.00" timeLoss="39.22" rerouteNo="0" devices="tripinfo_left_0_63" vType="passenger" speedFactor="0.99" vaporized=""/>
    <tripinfo id="right_0_65" depart="363.00" departLane="51o_0" departPos="5.10" departSpeed="0.00" departDelay="0.00" arrival="477.00" arrivalLane="52i_0" arrivalPos="10.00" arrivalSpeed="10.19" duration="114.00" routeLength="1015.10" waitingTime="5.00" waitingCount="1" stopTime="0.00" timeLoss="31.58" rerouteNo="0" devices="tripinfo_right_0_65" vType="passenger" speedFactor="0.88" vaporized=""/>
    <tripinfo id="left_0_64" depart="365.00" departLane="52o_0" departPos="5.10" departSpeed="0.00" departDelay="6.00" arrival="479.00" arrivalLane="51i_0" arrivalPos="10.00" arrivalSpeed="10.69" duration="114.00" routeLength="1015.10" waitingTime="6.00" waitingCount="1" stopTime="0.00" timeLoss="34.88" rerouteNo="0" devices="tripinfo_left_0_64" vType="passenger" speedFactor="0.94" vaporized=""/>
    <tripinfo id="right_0_68" depart="389.00" departLane="51o_0" departPos="5.10" departSpeed="0.00" departDelay="0.00" arrival="479.00" arrivalLane="52i_0" arrivalPos="10.00" arrivalSpeed="12.06" duration="90.00" routeLength="1015.10" waitingTime="0.00" waitingCount="0" stopTime="0.00" timeLoss="15.29" rerouteNo="0" devices="tripinfo_right_0_68" vType="passenger" speedFactor="1.04" vaporized=""/>
    <tripinfo id="left_0_66" depart="372.00" departLane="52o_0" departPos="5.10" departSpeed="0.00" departDelay="0.00" arrival="483.00" arrivalLane="51i_0" arrivalPos="10.00" arrivalSpeed="10.38" duration="111.00" routeLength="1015.10" waitingTime="1.00" waitingCount="1" stopTime="0.00" timeLoss="30.18" rerouteNo="0" devices="tripinfo_left_0_66" vType="passenger" speedFactor="0.91" vaporized=""/>
    <tripinfo id="left_0_67" depart="377.00" departLane="52o_0" departPos="5.10" departSpeed="0.00" departDelay="1.00" arrival="485.00" arrivalLane="51i_0" arrivalPos="10.00" arrivalSpeed="10.55" duration="108.00" routeLength="1015.10" waitingTime="0.00" waitingCount="0" stopTime="0.00" timeLoss="27.40" rerouteNo="0" devices="tripinfo_left_0_67" vType="passenger" speedFactor="0.91" vaporized=""/>
    <tripinfo id="right_0_69" depart="402.00" departLane="51o_0" departPos="5.10" departSpeed="0.00" departDelay="0.00" arrival="492.00" arrivalLane="52i_0" arrivalPos="10.00" arrivalSpeed="11.64" duration="90.00" routeLength="1015.10" waitingTime="0.00" waitingCount="0" stopTime="0.00" timeLoss="14.75" rerouteNo="0" devices="tripinfo_right_0_69" vType="passenger" speedFactor="1.02" vaporized=""/>
    <tripinfo id="left_0_70" depart="402.00" departLane="52o_0" departPos="5.10" departSpeed="0.00" departDelay="0.00" arrival="493.00" arrivalLane="51i_0" arrivalPos="10.00" arrivalSpeed="11.59" duration="91.00" routeLength="1015.10" waitingTime="0.00" waitingCount="0" stopTime="0.00" timeLoss="15.42" rerouteNo="0" devices="tripinfo_left_0_70" vType="passenger" speedFactor="1.02" vaporized=""/>
    <tripinfo id="left_0_71" depart="414.00" departLane="52o_0" departPos="5.10" departSpeed="0.00" departDelay="0.00" arrival="507.00" arrivalLane="51i_0" arrivalPos="10.00" arrivalSpeed="11.43" duration="93.00" routeLength="1015.10" waitingTime="0.00" waitingCount="0" stopTime="0.00" timeLoss="15.26" rerouteNo="0" devices="tripinfo_left_0_71" vType="passenger" speedFactor="0.97" vaporized=""/>