<?xml version="1.0" encoding="UTF-8"?>

<!-- generated on Mon Nov  4 00:51:30 2019 by Eclipse SUMO GUI Version 1.2.0
<configuration xmlns:xsi="http://www.w3.org/2001/XMLSchema-instance" xsi:noNamespaceSchemaLocation="http://sumo.dlr.de/xsd/sumoConfiguration.xsd">

    <input>
        <net-file value="simulation_files/sumocfgs/../networks/isolated_3_lanes_4_stages.net.xml"/>
        <route-files value="simulation_files/sumocfgs/../routes/isolated_3_lanes.rou.xml"/>
    </input>

    <output>
        <tripinfo-output value="tripinfo_isolated2.xml"/>
    </output>

    <time>
        <begin value="0"/>
        <step-length value="1"/>
    </time>

    <report>
        <verbose value="true"/>
        <no-step-log value="true"/>
    </report>

    <traci_server>
        <remote-port value="39343"/>
    </traci_server>

    <gui_only>
        <tracker-interval value="1"/>
    </gui_only>

</configuration>
-->

<tripinfos xmlns:xsi="http://www.w3.org/2001/XMLSchema-instance" xsi:noNamespaceSchemaLocation="http://sumo.dlr.de/xsd/tripinfo_file.xsd">
    <tripinfo id="4" depart="16.00" departLane="2o_0" departPos="5.10" departSpeed="0.00" departDelay="0.00" arrival="36.00" arrivalLane="2o_0" arrivalPos="286.40" arrivalSpeed="19.48" duration="20.00" routeLength="281.30" waitingTime="0.00" waitingCount="0" stopTime="0.00" timeLoss="5.23" rerouteNo="0" devices="tripinfo_4" vType="DEFAULT_VEHTYPE" speedFactor="1.03" vaporized=""/>
    <tripinfo id="5" depart="20.00" departLane="52o_0" departPos="5.10" departSpeed="0.00" departDelay="0.00" arrival="67.00" arrivalLane="53i_0" arrivalPos="10.00" arrivalSpeed="15.55" duration="47.00" routeLength="617.75" waitingTime="0.00" waitingCount="0" stopTime="0.00" timeLoss="7.13" rerouteNo="0" devices="tripinfo_5" vType="DEFAULT_VEHTYPE" speedFactor="0.83" vaporized=""/>
    <tripinfo id="9" depart="36.00" departLane="52o_0" departPos="5.10" departSpeed="0.00" departDelay="0.00" arrival="78.00" arrivalLane="51i_0" arrivalPos="10.00" arrivalSpeed="15.40" duration="42.00" routeLength="615.10" waitingTime="0.00" waitingCount="0" stopTime="0.00" timeLoss="4.96" rerouteNo="0" devices="tripinfo_9" vType="DEFAULT_VEHTYPE" speedFactor="0.86" vaporized=""/>
    <tripinfo id="15" depart="60.00" departLane="52o_0" departPos="5.10" departSpeed="0.00" departDelay="0.00" arrival="82.00" arrivalLane="2i_0" arrivalPos="286.40" arrivalSpeed="17.11" duration="22.00" routeLength="291.40" waitingTime="0.00" waitingCount="0" stopTime="0.00" timeLoss="5.25" rerouteNo="0" devices="tripinfo_15" vType="DEFAULT_VEHTYPE" speedFactor="0.93" vaporized=""/>
    <tripinfo id="14" depart="56.00" departLane="53o_0" departPos="5.10" departSpeed="0.00" departDelay="0.00" arrival="96.00" arrivalLane="52i_0" arrivalPos="10.00" arrivalSpeed="18.14" duration="40.00" routeLength="596.93" waitingTime="0.00" waitingCount="0" stopTime="0.00" timeLoss="8.27" rerouteNo="0" devices="tripinfo_14" vType="DEFAULT_VEHTYPE" speedFactor="0.99" vaporized=""/>
    <tripinfo id="18" depart="72.00" departLane="53o_0" departPos="5.10" departSpeed="0.00" departDelay="0.00" arrival="115.00" arrivalLane="51i_0" arrivalPos="10.00" arrivalSpeed="17.18" duration="43.00" routeLength="617.75" waitingTime="0.00" waitingCount="0" stopTime="0.00" timeLoss="6.79" rerouteNo="0" devices="tripinfo_18" vType="DEFAULT_VEHTYPE" speedFactor="0.94" vaporized=""/>
    <tripinfo id="32" depart="128.00" departLane="53o_0" departPos="5.10" departSpeed="0.00" departDelay="0.00" arrival="166.00" arrivalLane="54i_0" arrivalPos="10.00" arrivalSpeed="19.04" duration="38.00" routeLength="615.10" waitingTime="0.00" waitingCount="0" stopTime="0.00" timeLoss="5.58" rerouteNo="0" devices="tripinfo_32" vType="DEFAULT_VEHTYPE" speedFactor="1.01" vaporized=""/>
    <tripinfo id="2" depart="8.00" departLane="1o_0" departPos="5.10" departSpeed="0.00" departDelay="0.00" arrival="203.00" arrivalLane="53i_0" arrivalPos="10.00" arrivalSpeed="19.15" duration="195.00" routeLength="898.10" waitingTime="128.00" waitingCount="1" stopTime="0.00" timeLoss="147.41" rerouteNo="0" devices="tripinfo_2" vType="DEFAULT_VEHTYPE" speedFactor="1.01" vaporized=""/>
    <tripinfo id="0" depart="0.00" departLane="1o_0" departPos="5.10" departSpeed="0.00" departDelay="0.00" arrival="205.00" arrivalLane="54i_0" arrivalPos="10.00" arrivalSpeed="19.62" duration="205.00" routeLength="918.92" waitingTime="140.00" waitingCount="1" stopTime="0.00" timeLoss="158.11" rerouteNo="0" devices="tripinfo_0" vType="DEFAULT_VEHTYPE" speedFactor="1.06" vaporized=""/>
    <tripinfo id="10" depart="40.00" departLane="1i_0" departPos="5.10" departSpeed="0.00" departDelay="0.00" arrival="206.00" arrivalLane="54i_0" arrivalPos="10.00" arrivalSpeed="20.48" duration="166.00" routeLength="607.65" waitingTime="122.00" waitingCount="1" stopTime="0.00" timeLoss="136.39" rerouteNo="0" devices="tripinfo_10" vType="DEFAULT_VEHTYPE" speedFactor="1.09" vaporized=""/>
    <tripinfo id="34" depart="136.00" departLane="51o_0" departPos="5.10" departSpeed="0.00" departDelay="0.00" arrival="206.00" arrivalLane="53i_0" arrivalPos="10.00" arrivalSpeed="18.75" duration="70.00" routeLength="596.93" waitingTime="24.00" waitingCount="1" stopTime="0.00" timeLoss="37.94" rerouteNo="0" devices="tripinfo_34" vType="DEFAULT_VEHTYPE" speedFactor="0.99" vaporized=""/>
    <tripinfo id="30" depart="120.00" departLane="51o_0" departPos="5.10" departSpeed="0.00" departDelay="0.00" arrival="211.00" arrivalLane="54i_0" arrivalPos="10.00" arrivalSpeed="21.97" duration="91.00" routeLength="617.75" waitingTime="45.00" waitingCount="1" stopTime="0.00" timeLoss="62.88" rerouteNo="0" devices="tripinfo_30" vType="DEFAULT_VEHTYPE" speedFactor="1.18" vaporized=""/>
    <tripinfo id="39" depart="156.00" departLane="1i_0" departPos="5.10" departSpeed="0.00" departDelay="0.00" arrival="211.00" arrivalLane="53i_0" arrivalPos="10.00" arrivalSpeed="17.28" duration="55.00" routeLength="586.83" waitingTime="5.00" waitingCount="1" stopTime="0.00" timeLoss="19.89" rerouteNo="0" devices="tripinfo_39" vType="DEFAULT_VEHTYPE" speedFactor="0.90" vaporized=""/>
    <tripinfo id="40" depart="160.00" departLane="1o_0" departPos="5.10" departSpeed="0.00" departDelay="0.00" arrival="219.00" arrivalLane="52i_1" arrivalPos="10.00" arrivalSpeed="15.23" duration="59.00" routeLength="916.27" waitingTime="0.00" waitingCount="0" stopTime="0.00" timeLoss="12.14" rerouteNo="0" devices="tripinfo_40" vType="DEFAULT_VEHTYPE" speedFactor="1.03" vaporized=""/>
    <tripinfo id="3" depart="12.00" departLane="4o_0" departPos="5.10" departSpeed="0.00" departDelay="0.00" arrival="229.00" arrivalLane="53i_0" arrivalPos="10.00" arrivalSpeed="20.30" duration="217.00" routeLength="916.27" waitingTime="152.00" waitingCount="1" stopTime="0.00" timeLoss="171.90" rerouteNo="0" devices="tripinfo_3" vType="DEFAULT_VEHTYPE" speedFactor="1.08" vaporized=""/>
    <tripinfo id="8" depart="32.00" departLane="4i_0" departPos="5.10" departSpeed="0.00" departDelay="0.00" arrival="231.00" arrivalLane="53i_0" arrivalPos="10.00" arrivalSpeed="18.18" duration="199.00" routeLength="605.00" waitingTime="151.00" waitingCount="1" stopTime="0.00" timeLoss="165.22" rerouteNo="0" devices="tripinfo_8" vType="DEFAULT_VEHTYPE" speedFactor="0.94" vaporized=""/>
    <tripinfo id="12" depart="48.00" departLane="54o_0" departPos="5.10" departSpeed="0.00" departDelay="0.00" arrival="231.00" arrivalLane="51i_0" arrivalPos="10.00" arrivalSpeed="19.80" duration="183.00" routeLength="596.93" waitingTime="139.00" waitingCount="1" stopTime="0.00" timeLoss="152.28" rerouteNo="0" devices="tripinfo_12" vType="DEFAULT_VEHTYPE" speedFactor="1.05" vaporized=""/>
    <tripinfo id="21" depart="84.00" departLane="51o_0" departPos="5.10" departSpeed="0.00" departDelay="0.00" arrival="232.00" arrivalLane="4i_2" arrivalPos="286.40" arrivalSpeed="18.43" duration="148.00" routeLength="918.92" waitingTime="78.00" waitingCount="1" stopTime="0.00" timeLoss="99.31" rerouteNo="0" devices="tripinfo_21" vType="DEFAULT_VEHTYPE" speedFactor="1.01" vaporized=""/>
    <tripinfo id="13" depart="52.00" departLane="4o_0" departPos="5.10" departSpeed="0.00" departDelay="0.00" arrival="233.00" arrivalLane="51i_0" arrivalPos="10.00" arrivalSpeed="20.94" duration="181.00" routeLength="898.10" waitingTime="117.00" waitingCount="1" stopTime="0.00" timeLoss="137.82" rerouteNo="0" devices="tripinfo_13" vType="DEFAULT_VEHTYPE" speedFactor="1.12" vaporized=""/>
    <tripinfo id="19" depart="76.00" departLane="54o_0" departPos="5.10" departSpeed="0.00" departDelay="0.00" arrival="234.00" arrivalLane="51i_0" arrivalPos="10.00" arrivalSpeed="21.29" duration="158.00" routeLength="596.93" waitingTime="114.00" waitingCount="1" stopTime="0.00" timeLoss="130.61" rerouteNo="0" devices="tripinfo_19" vType="DEFAULT_VEHTYPE" speedFactor="1.16" vaporized=""/>
    <tripinfo id="7" depart="28.00" departLane="4o_0" departPos="5.10" departSpeed="0.00" departDelay="0.00" arrival="235.00" arrivalLane="52i_0" arrivalPos="10.00" arrivalSpeed="16.68" duration="207.00" routeLength="918.92" waitingTime="133.00" waitingCount="1" stopTime="0.00" timeLoss="151.14" rerouteNo="0" devices="tripinfo_7" vType="DEFAULT_VEHTYPE" speedFactor="0.89" vaporized=""/>
    <tripinfo id="22" depart="88.00" departLane="53o_0" departPos="5.10" departSpeed="0.00" departDelay="0.00" arrival="237.00" arrivalLane="53i_1" arrivalPos="10.00" arrivalSpeed="17.30" duration="149.00" routeLength="1239.97" waitingTime="56.00" waitingCount="1" stopTime="0.00" timeLoss="82.44" rerouteNo="0" devices="tripinfo_22" vType="DEFAULT_VEHTYPE" speedFactor="0.98" vaporized=""/>
    <tripinfo id="24" depart="96.00" departLane="54o_0" departPos="5.10" departSpeed="0.00" departDelay="0.00" arrival="238.00" arrivalLane="52i_0" arrivalPos="10.00" arrivalSpeed="15.98" duration="142.00" routeLength="617.75" waitingTime="87.00" waitingCount="1" stopTime="0.00" timeLoss="102.12" rerouteNo="0" devices="tripinfo_24" vType="DEFAULT_VEHTYPE" speedFactor="0.83" vaporized=""/>
    <tripinfo id="27" depart="108.00" departLane="54o_0" departPos="5.10" departSpeed="0.00" departDelay="0.00" arrival="240.00" arrivalLane="52i_0" arrivalPos="10.00" arrivalSpeed="17.67" duration="132.00" routeLength="617.75" waitingTime="81.00" waitingCount="1" stopTime="0.00" timeLoss="96.70" rerouteNo="0" devices="tripinfo_27" vType="DEFAULT_VEHTYPE" speedFactor="0.95" vaporized=""/>
    <tripinfo id="25" depart="100.00" departLane="54o_0" departPos="5.10" departSpeed="0.00" departDelay="0.00" arrival="241.00" arrivalLane="1o_0" arrivalPos="286.40" arrivalSpeed="16.44" duration="141.00" routeLength="586.83" waitingTime="89.00" waitingCount="1" stopTime="0.00" timeLoss="104.47" rerouteNo="0" devices="tripinfo_25" vType="DEFAULT_VEHTYPE" speedFactor="0.87" vaporized=""/>
    <tripinfo id="38" depart="152.00" departLane="54o_0" departPos="5.10" departSpeed="0.00" departDelay="0.00" arrival="241.00" arrivalLane="52i_0" arrivalPos="10.00" arrivalSpeed="18.51" duration="89.00" routeLength="617.75" waitingTime="38.00" waitingCount="1" stopTime="0.00" timeLoss="59.01" rerouteNo="0" devices="tripinfo_38" vType="DEFAULT_VEHTYPE" speedFactor="1.10" vaporized=""/>
    <tripinfo id="42" depart="168.00" departLane="54o_0" departPos="5.10" departSpeed="0.00" departDelay="0.00" arrival="242.00" arrivalLane="2o_0" arrivalPos="286.40" arrivalSpeed="18.93" duration="74.00" routeLength="607.65" waitingTime="22.00" waitingCount="2" stopTime="0.00" timeLoss="44.29" rerouteNo="0" devices="tripinfo_42" vType="DEFAULT_VEHTYPE" speedFactor="1.09" vaporized=""/>
    <tripinfo id="28" depart="112.00" departLane="54o_0" departPos="5.10" departSpeed="0.00" departDelay="0.00" arrival="243.00" arrivalLane="51i_0" arrivalPos="10.00" arrivalSpeed="21.00" duration="131.00" routeLength="596.93" waitingTime="83.00" waitingCount="1" stopTime="0.00" timeLoss="102.84" rerouteNo="0" devices="tripinfo_28" vType="DEFAULT_VEHTYPE" speedFactor="1.13" vaporized=""/>
    <tripinfo id="37" depart="148.00" departLane="54o_0" departPos="5.10" departSpeed="0.00" departDelay="0.00" arrival="245.00" arrivalLane="51i_0" arrivalPos="10.00" arrivalSpeed="21.66" duration="97.00" routeLength="596.93" waitingTime="47.00" waitingCount="1" stopTime="0.00" timeLoss="69.47" rerouteNo="0" devices="tripinfo_37" vType="DEFAULT_VEHTYPE" speedFactor="1.18" vaporized=""/>
    <tripinfo id="45" depart="180.00" departLane="4i_0" departPos="5.10" departSpeed="0.00" departDelay="0.00" arrival="248.00" arrivalLane="51i_0" arrivalPos="10.00" arrivalSpeed="20.81" duration="68.00" routeLength="586.83" waitingTime="17.00" waitingCount="1" stopTime="0.00" timeLoss="38.31" rerouteNo="0" devices="tripinfo_45" vType="DEFAULT_VEHTYPE" speedFactor="1.09" vaporized=""/>
    <tripinfo id="35" depart="140.00" departLane="51o_0" departPos="5.10" departSpeed="0.00" departDelay="0.00" arrival="263.00" arrivalLane="2i_1" arrivalPos="286.40" arrivalSpeed="6.05" duration="123.00" routeLength="916.27" waitingTime="33.00" waitingCount="4" stopTime="0.00" timeLoss="75.32" rerouteNo="0" devices="tripinfo_35" vType="DEFAULT_VEHTYPE" speedFactor="1.02" vaporized=""/>
    <tripinfo id="1" depart="4.00" departLane="4o_0" departPos="5.10" departSpeed="0.00" departDelay="0.00" arrival="265.00" arrivalLane="2i_1" arrivalPos="286.40" arrivalSpeed="7.80" duration="261.00" routeLength="1220.09" waitingTime="158.00" waitingCount="2" stopTime="0.00" timeLoss="190.44" rerouteNo="0" devices="tripinfo_1" vType="DEFAULT_VEHTYPE" speedFactor="0.94" vaporized=""/>
    <tripinfo id="49" depart="197.00" departLane="4o_0" departPos="5.10" departSpeed="0.00" departDelay="1.00" arrival="268.00" arrivalLane="52i_0" arrivalPos="10.00" arrivalSpeed="15.53" duration="71.00" routeLength="918.92" waitingTime="0.00" waitingCount="0" stopTime="0.00" timeLoss="12.85" rerouteNo="0" devices="tripinfo_49" vType="DEFAULT_VEHTYPE" speedFactor="0.85" vaporized=""/>
    <tripinfo id="33" depart="132.00" departLane="52o_0" departPos="5.10" departSpeed="0.00" departDelay="0.00" arrival="277.00" arrivalLane="53i_0" arrivalPos="10.00" arrivalSpeed="21.85" duration="145.00" routeLength="617.75" waitingTime="103.00" waitingCount="1" stopTime="0.00" timeLoss="116.50" rerouteNo="0" devices="tripinfo_33" vType="DEFAULT_VEHTYPE" speedFactor="1.17" vaporized=""/>
    <tripinfo id="20" depart="80.00" departLane="52o_0" departPos="5.10" departSpeed="0.00" departDelay="0.00" arrival="278.00" arrivalLane="54i_0" arrivalPos="10.00" arrivalSpeed="19.42" duration="198.00" routeLength="596.93" waitingTime="153.00" waitingCount="1" stopTime="0.00" timeLoss="166.38" rerouteNo="0" devices="tripinfo_20" vType="DEFAULT_VEHTYPE" speedFactor="1.02" vaporized=""/>
    <tripinfo id="17" depart="68.00" departLane="52o_0" departPos="5.10" departSpeed="0.00" departDelay="0.00" arrival="282.00" arrivalLane="1o_1" arrivalPos="286.40" arrivalSpeed="17.00" duration="214.00" routeLength="605.00" waitingTime="163.00" waitingCount="1" stopTime="0.00" timeLoss="180.24" rerouteNo="0" devices="tripinfo_17" vType="DEFAULT_VEHTYPE" speedFactor="0.94" vaporized=""/>
    <tripinfo id="6" depart="24.00" departLane="51o_0" departPos="5.10" departSpeed="0.00" departDelay="0.00" arrival="284.00" arrivalLane="1o_1" arrivalPos="286.40" arrivalSpeed="18.11" duration="260.00" routeLength="1229.87" waitingTime="155.00" waitingCount="3" stopTime="0.00" timeLoss="198.28" rerouteNo="0" devices="tripinfo_6" vType="DEFAULT_VEHTYPE" speedFactor="1.05" vaporized=""/>
    <tripinfo id="16" depart="64.00" departLane="51o_0" departPos="5.10" departSpeed="0.00" departDelay="0.00" arrival="284.00" arrivalLane="51i_2" arrivalPos="10.00" arrivalSpeed="10.54" duration="220.00" routeLength="1239.97" waitingTime="114.00" waitingCount="3" stopTime="0.00" timeLoss="145.96" rerouteNo="0" devices="tripinfo_16" vType="DEFAULT_VEHTYPE" speedFactor="0.88" vaporized=""/>
    <tripinfo id="50" depart="200.00" departLane="52o_0" departPos="5.10" departSpeed="0.00" departDelay="0.00" arrival="284.00" arrivalLane="54i_0" arrivalPos="10.00" arrivalSpeed="15.61" duration="84.00" routeLength="596.93" waitingTime="33.00" waitingCount="1" stopTime="0.00" timeLoss="46.88" rerouteNo="0" devices="tripinfo_50" vType="DEFAULT_VEHTYPE" speedFactor="0.85" vaporized=""/>
    <tripinfo id="57" depart="228.00" departLane="52o_0" departPos="5.10" departSpeed="0.00" departDelay="0.00" arrival="284.00" arrivalLane="3o_0" arrivalPos="286.40" arrivalSpeed="21.54" duration="56.00" routeLength="607.65" waitingTime="11.00" waitingCount="1" stopTime="0.00" timeLoss="27.08" rerouteNo="0" devices="tripinfo_57" vType="DEFAULT_VEHTYPE" speedFactor="1.14" vaporized=""/>
    <tripinfo id="36" depart="144.00" departLane="51o_0" departPos="5.10" departSpeed="0.00" departDelay="0.00" arrival="286.00" arrivalLane="51i_2" arrivalPos="10.00" arrivalSpeed="12.84" duration="142.00" routeLength="1239.97" waitingTime="28.00" waitingCount="3" stopTime="0.00" timeLoss="75.47" rerouteNo="0" devices="tripinfo_36" vType="DEFAULT_VEHTYPE" speedFactor="0.97" vaporized=""/>
    <tripinfo id="66" depart="266.00" departLane="4o_0" departPos="5.10" departSpeed="0.00" departDelay="2.00" arrival="287.00" arrivalLane="54i_0" arrivalPos="10.00" arrivalSpeed="17.50" duration="21.00" routeLength="291.40" waitingTime="0.00" waitingCount="0" stopTime="0.00" timeLoss="4.36" rerouteNo="0" devices="tripinfo_66" vType="DEFAULT_VEHTYPE" speedFactor="0.91" vaporized=""/>
    <tripinfo id="58" depart="232.00" departLane="4i_0" departPos="5.10" departSpeed="0.00" departDelay="0.00" arrival="294.00" arrivalLane="2i_2" arrivalPos="286.40" arrivalSpeed="15.60" duration="62.00" routeLength="908.82" waitingTime="0.00" waitingCount="0" stopTime="0.00" timeLoss="14.96" rerouteNo="0" devices="tripinfo_58" vType="DEFAULT_VEHTYPE" speedFactor="1.02" vaporized=""/>
    <tripinfo id="69" depart="276.00" departLane="3o_0" departPos="5.10" departSpeed="0.00" departDelay="0.00" arrival="297.00" arrivalLane="53i_0" arrivalPos="10.00" arrivalSpeed="18.69" duration="21.00" routeLength="291.40" waitingTime="0.00" waitingCount="0" stopTime="0.00" timeLoss="5.79" rerouteNo="0" devices="tripinfo_69" vType="DEFAULT_VEHTYPE" speedFactor="1.02" vaporized=""/>
    <tripinfo id="68" depart="272.00" departLane="52o_0" departPos="5.10" departSpeed="0.00" departDelay="0.00" arrival="313.00" arrivalLane="53i_0" arrivalPos="10.00" arrivalSpeed="20.03" duration="41.00" routeLength="617.75" waitingTime="0.00" waitingCount="0" stopTime="0.00" timeLoss="9.14" rerouteNo="0" devices="tripinfo_68" vType="DEFAULT_VEHTYPE" speedFactor="1.04" vaporized=""/>
    <tripinfo id="71" depart="284.00" departLane="52o_0" departPos="5.10" departSpeed="0.00" departDelay="0.00" arrival="321.00" arrivalLane="1o_0" arrivalPos="286.40" arrivalSpeed="17.96" duration="37.00" routeLength="605.00" waitingTime="0.00" waitingCount="0" stopTime="0.00" timeLoss="4.81" rerouteNo="0" devices="tripinfo_71" vType="DEFAULT_VEHTYPE" speedFactor="0.97" vaporized=""/>
    <tripinfo id="76" depart="304.00" departLane="52o_0" departPos="5.10" departSpeed="0.00" departDelay="0.00" arrival="345.00" arrivalLane="54i_0" arrivalPos="10.00" arrivalSpeed="19.82" duration="41.00" routeLength="596.93" waitingTime="0.00" waitingCount="0" stopTime="0.00" timeLoss="10.05" rerouteNo="0" devices="tripinfo_76" vType="DEFAULT_VEHTYPE" speedFactor="1.03" vaporized=""/>
    <tripinfo id="77" depart="308.00" departLane="2o_0" departPos="5.10" departSpeed="0.00" departDelay="0.00" arrival="371.00" arrivalLane="54i_0" arrivalPos="10.00" arrivalSpeed="18.53" duration="63.00" routeLength="898.10" waitingTime="0.00" waitingCount="0" stopTime="0.00" timeLoss="14.53" rerouteNo="0" devices="tripinfo_77" vType="DEFAULT_VEHTYPE" speedFactor="0.98" vaporized=""/>
    <tripinfo id="83" depart="332.00" departLane="52o_0" departPos="5.10" departSpeed="0.00" departDelay="0.00" arrival="374.00" arrivalLane="53i_0" arrivalPos="10.00" arrivalSpeed="18.30" duration="42.00" routeLength="617.75" waitingTime="0.00" waitingCount="0" stopTime="0.00" timeLoss="7.97" rerouteNo="0" devices="tripinfo_83" vType="DEFAULT_VEHTYPE" speedFactor="0.97" vaporized=""/>
    <tripinfo id="41" depart="164.00" departLane="54o_0" departPos="5.10" departSpeed="0.00" departDelay="0.00" arrival="376.00" arrivalLane="3i_2" arrivalPos="286.40" arrivalSpeed="11.24" duration="212.00" routeLength="916.27" waitingTime="123.00" waitingCount="3" stopTime="0.00" timeLoss="161.10" rerouteNo="0" devices="tripinfo_41" vType="DEFAULT_VEHTYPE" speedFactor="0.96" vaporized=""/>
    <tripinfo id="43" depart="172.00" departLane="53o_0" departPos="5.10" departSpeed="0.00" departDelay="0.00" arrival="386.00" arrivalLane="52i_0" arrivalPos="10.00" arrivalSpeed="19.73" duration="214.00" routeLength="596.93" waitingTime="170.00" waitingCount="1" stopTime="0.00" timeLoss="183.49" rerouteNo="0" devices="tripinfo_43" vType="DEFAULT_VEHTYPE" speedFactor="1.04" vaporized=""/>
    <tripinfo id="53" depart="212.00" departLane="53o_0" departPos="5.10" departSpeed="0.00" departDelay="0.00" arrival="386.00" arrivalLane="54i_0" arrivalPos="10.00" arrivalSpeed="20.97" duration="174.00" routeLength="615.10" waitingTime="131.00" waitingCount="1" stopTime="0.00" timeLoss="144.21" rerouteNo="0" devices="tripinfo_53" vType="DEFAULT_VEHTYPE" speedFactor="1.10" vaporized=""/>
    <tripinfo id="55" depart="220.00" departLane="53o_0" departPos="5.10" departSpeed="0.00" departDelay="0.00" arrival="388.00" arrivalLane="54i_1" arrivalPos="10.00" arrivalSpeed="19.07" duration="168.00" routeLength="615.10" waitingTime="119.00" waitingCount="1" stopTime="0.00" timeLoss="136.14" rerouteNo="0" devices="tripinfo_55" vType="DEFAULT_VEHTYPE" speedFactor="1.00" vaporized=""/>
    <tripinfo id="46" depart="184.00" departLane="53o_0" departPos="5.10" departSpeed="0.00" departDelay="0.00" arrival="389.00" arrivalLane="52i_0" arrivalPos="10.00" arrivalSpeed="18.31" duration="205.00" routeLength="596.93" waitingTime="158.00" waitingCount="1" stopTime="0.00" timeLoss="173.13" rerouteNo="0" devices="tripinfo_46" vType="DEFAULT_VEHTYPE" speedFactor="1.00" vaporized=""/>
    <tripinfo id="47" depart="188.00" departLane="53o_0" departPos="5.10" departSpeed="0.00" departDelay="0.00" arrival="389.00" arrivalLane="51i_0" arrivalPos="10.00" arrivalSpeed="17.29" duration="201.00" routeLength="617.75" waitingTime="153.00" waitingCount="1" stopTime="0.00" timeLoss="164.47" rerouteNo="0" devices="tripinfo_47" vType="DEFAULT_VEHTYPE" speedFactor="0.90" vaporized=""/>
    <tripinfo id="52" depart="208.00" departLane="53o_0" departPos="5.10" departSpeed="0.00" departDelay="0.00" arrival="391.00" arrivalLane="51i_0" arrivalPos="10.00" arrivalSpeed="18.88" duration="183.00" routeLength="617.75" waitingTime="136.00" waitingCount="1" stopTime="0.00" timeLoss="150.17" rerouteNo="0" devices="tripinfo_52" vType="DEFAULT_VEHTYPE" speedFactor="1.02" vaporized=""/>
    <tripinfo id="23" depart="92.00" departLane="54o_0" departPos="5.10" departSpeed="0.00" departDelay="0.00" arrival="393.00" arrivalLane="54i_1" arrivalPos="10.00" arrivalSpeed="16.59" duration="301.00" routeLength="1239.97" waitingTime="193.00" waitingCount="3" stopTime="0.00" timeLoss="227.38" rerouteNo="0" devices="tripinfo_23" vType="DEFAULT_VEHTYPE" speedFactor="0.89" vaporized=""/>
    <tripinfo id="60" depart="240.00" departLane="53o_0" departPos="5.10" departSpeed="0.00" departDelay="0.00" arrival="393.00" arrivalLane="4o_2" arrivalPos="286.40" arrivalSpeed="11.71" duration="153.00" routeLength="605.00" waitingTime="106.00" waitingCount="1" stopTime="0.00" timeLoss="124.07" rerouteNo="0" devices="tripinfo_60" vType="DEFAULT_VEHTYPE" speedFactor="1.08" vaporized=""/>
    <tripinfo id="62" depart="248.00" departLane="53o_0" departPos="5.10" departSpeed="0.00" departDelay="0.00" arrival="393.00" arrivalLane="52i_0" arrivalPos="10.00" arrivalSpeed="18.69" duration="145.00" routeLength="596.93" waitingTime="99.00" waitingCount="1" stopTime="0.00" timeLoss="114.15" rerouteNo="0" devices="tripinfo_62" vType="DEFAULT_VEHTYPE" speedFactor="1.02" vaporized=""/>
    <tripinfo id="29" depart="116.00" departLane="4i_0" departPos="5.10" departSpeed="0.00" departDelay="0.00" arrival="394.00" arrivalLane="54i_1" arrivalPos="10.00" arrivalSpeed="17.45" duration="278.00" routeLength="1229.87" waitingTime="167.00" waitingCount="3" stopTime="0.00" timeLoss="208.41" rerouteNo="0" devices="tripinfo_29" vType="DEFAULT_VEHTYPE" speedFactor="0.93" vaporized=""/>
    <tripinfo id="56" depart="224.00" departLane="54o_0" departPos="5.10" departSpeed="0.00" departDelay="0.00" arrival="396.00" arrivalLane="54i_1" arrivalPos="10.00" arrivalSpeed="17.21" duration="172.00" routeLength="1239.97" waitingTime="75.00" waitingCount="1" stopTime="0.00" timeLoss="99.27" rerouteNo="0" devices="tripinfo_56" vType="DEFAULT_VEHTYPE" speedFactor="0.90" vaporized=""/>
    <tripinfo id="63" depart="252.00" departLane="3i_0" departPos="5.10" departSpeed="0.00" departDelay="0.00" arrival="398.00" arrivalLane="1o_0" arrivalPos="286.40" arrivalSpeed="19.03" duration="146.00" routeLength="597.55" waitingTime="97.00" waitingCount="1" stopTime="0.00" timeLoss="113.58" rerouteNo="0" devices="tripinfo_63" vType="DEFAULT_VEHTYPE" speedFactor="0.99" vaporized=""/>
    <tripinfo id="65" depart="260.00" departLane="53o_0" departPos="5.10" departSpeed="0.00" departDelay="0.00" arrival="399.00" arrivalLane="52i_0" arrivalPos="10.00" arrivalSpeed="16.53" duration="139.00" routeLength="596.93" waitingTime="86.00" waitingCount="1" stopTime="0.00" timeLoss="102.31" rerouteNo="0" devices="tripinfo_65" vType="DEFAULT_VEHTYPE" speedFactor="0.88" vaporized=""/>
    <tripinfo id="89" depart="356.00" departLane="53o_0" departPos="5.10" departSpeed="0.00" departDelay="0.00" arrival="399.00" arrivalLane="4o_1" arrivalPos="286.40" arrivalSpeed="18.97" duration="43.00" routeLength="605.00" waitingTime="0.00" waitingCount="0" stopTime="0.00" timeLoss="11.73" rerouteNo="0" devices="tripinfo_89" vType="DEFAULT_VEHTYPE" speedFactor="1.02" vaporized=""/>
    <tripinfo id="82" depart="328.00" departLane="53o_0" departPos="5.10" departSpeed="0.00" departDelay="0.00" arrival="400.00" arrivalLane="2o_0" arrivalPos="286.40" arrivalSpeed="19.64" duration="72.00" routeLength="586.83" waitingTime="20.00" waitingCount="1" stopTime="0.00" timeLoss="40.94" rerouteNo="0" devices="tripinfo_82" vType="DEFAULT_VEHTYPE" speedFactor="1.02" vaporized=""/>
    <tripinfo id="100" depart="400.00" departLane="1o_0" departPos="5.10" departSpeed="0.00" departDelay="0.00" arrival="420.00" arrivalLane="51i_0" arrivalPos="10.00" arrivalSpeed="20.58" duration="20.00" routeLength="291.40" waitingTime="0.00" waitingCount="0" stopTime="0.00" timeLoss="5.37" rerouteNo="0" devices="tripinfo_100" vType="DEFAULT_VEHTYPE" speedFactor="1.07" vaporized=""/>
    <tripinfo id="105" depart="420.00" departLane="53o_0" departPos="5.10" departSpeed="0.00" departDelay="0.00" arrival="461.00" arrivalLane="54i_2" arrivalPos="10.00" arrivalSpeed="6.18" duration="41.00" routeLength="615.10" waitingTime="0.00" waitingCount="0" stopTime="0.00" timeLoss="11.46" rerouteNo="0" devices="tripinfo_105" vType="DEFAULT_VEHTYPE" speedFactor="1.07" vaporized=""/>
    <tripinfo id="26" depart="104.00" departLane="54o_0" departPos="5.10" departSpeed="0.00" departDelay="0.00" arrival="476.00" arrivalLane="1i_2" arrivalPos="286.40" arrivalSpeed="4.14" duration="372.00" routeLength="898.10" waitingTime="291.00" waitingCount="2" stopTime="0.00" timeLoss="319.16" rerouteNo="0" devices="tripinfo_26" vType="DEFAULT_VEHTYPE" speedFactor="0.92" vaporized=""/>
    <tripinfo id="109" depart="436.00" departLane="53o_0" departPos="5.10" departSpeed="0.00" departDelay="0.00" arrival="477.00" arrivalLane="2o_0" arrivalPos="286.40" arrivalSpeed="18.20" duration="41.00" routeLength="586.83" waitingTime="0.00" waitingCount="0" stopTime="0.00" timeLoss="8.59" rerouteNo="0" devices="tripinfo_109" vType="DEFAULT_VEHTYPE" speedFactor="0.96" vaporized=""/>
    <tripinfo id="64" depart="256.00" departLane="53o_0" departPos="5.10" departSpeed="0.00" departDelay="0.00" arrival="486.00" arrivalLane="1i_0" arrivalPos="286.40" arrivalSpeed="7.63" duration="230.00" routeLength="918.92" waitingTime="140.00" waitingCount="3" stopTime="0.00" timeLoss="176.97" rerouteNo="0" devices="tripinfo_64" vType="DEFAULT_VEHTYPE" speedFactor="0.94" vaporized=""/>
    <tripinfo id="44" depart="176.00" departLane="1o_0" departPos="5.10" departSpeed="0.00" departDelay="0.00" arrival="494.00" arrivalLane="4o_0" arrivalPos="286.40" arrivalSpeed="19.71" duration="318.00" routeLength="908.82" waitingTime="252.00" waitingCount="1" stopTime="0.00" timeLoss="271.10" rerouteNo="0" devices="tripinfo_44" vType="DEFAULT_VEHTYPE" speedFactor="1.04" vaporized=""/>
    <tripinfo id="54" depart="216.00" departLane="1i_0" departPos="5.10" departSpeed="0.00" departDelay="0.00" arrival="494.00" arrivalLane="53i_0" arrivalPos="10.00" arrivalSpeed="18.55" duration="278.00" routeLength="586.83" waitingTime="234.00" waitingCount="1" stopTime="0.00" timeLoss="246.11" rerouteNo="0" devices="tripinfo_54" vType="DEFAULT_VEHTYPE" speedFactor="1.00" vaporized=""/>
    <tripinfo id="31" depart="124.00" departLane="52o_0" departPos="5.10" departSpeed="0.00" departDelay="0.00" arrival="495.00" arrivalLane="52i_1" arrivalPos="10.00" arrivalSpeed="13.78" duration="371.00" routeLength="1239.97" waitingTime="281.00" waitingCount="3" stopTime="0.00" timeLoss="314.79" rerouteNo="0" devices="tripinfo_31" vType="DEFAULT_VEHTYPE" speedFactor="1.15" vaporized=""/>