<?xml version="1.0" encoding="UTF-8"?>

<!-- generated on Wed Oct 16 01:31:42 2019 by Eclipse SUMO Version 1.2.0
<configuration xmlns:xsi="http://www.w3.org/2001/XMLSchema-instance" xsi:noNamespaceSchemaLocation="http://sumo.dlr.de/xsd/sumoConfiguration.xsd">

    <input>
        <net-file value="data/cross.net.xml"/>
        <route-files value="data/cross.rou.xml"/>
        <additional-files value="data/cross.tlsp.xml"/>
    </input>

    <output>
        <tripinfo-output value="tripinfo_isolated2.xml"/>
    </output>

    <time>
        <begin value="0"/>
        <step-length value="1"/>
    </time>

    <report>
        <verbose value="true"/>
        <no-step-log value="true"/>
    </report>

    <traci_server>
        <remote-port value="43771"/>
    </traci_server>

    <gui_only>
        <tracker-interval value="1"/>
    </gui_only>

</configuration>
-->

<tripinfos xmlns:xsi="http://www.w3.org/2001/XMLSchema-instance" xsi:noNamespaceSchemaLocation="http://sumo.dlr.de/xsd/tripinfo_file.xsd">
    <tripinfo id="left_0" depart="0.00" departLane="52o_0" departPos="5.10" departSpeed="0.00" departDelay="0.00" arrival="88.00" arrivalLane="51i_0" arrivalPos="10.00" arrivalSpeed="12.32" duration="88.00" routeLength="1015.10" waitingTime="0.00" waitingCount="0" stopTime="0.00" timeLoss="14.61" rerouteNo="0" devices="tripinfo_left_0" vType="passenger" speedFactor="1.06" vaporized=""/>
    <tripinfo id="right_2" depart="3.00" departLane="51o_0" departPos="5.10" departSpeed="0.00" departDelay="0.00" arrival="94.00" arrivalLane="52i_0" arrivalPos="10.00" arrivalSpeed="11.60" duration="91.00" routeLength="1015.10" waitingTime="0.00" waitingCount="0" stopTime="0.00" timeLoss="15.04" rerouteNo="0" devices="tripinfo_right_2" vType="passenger" speedFactor="1.01" vaporized=""/>
    <tripinfo id="right_4" depart="8.00" departLane="51o_0" departPos="5.10" departSpeed="0.00" departDelay="4.00" arrival="98.00" arrivalLane="52i_0" arrivalPos="10.00" arrivalSpeed="11.66" duration="90.00" routeLength="1015.10" waitingTime="0.00" waitingCount="0" stopTime="0.00" timeLoss="14.92" rerouteNo="0" devices="tripinfo_right_4" vType="passenger" speedFactor="1.03" vaporized=""/>
    <tripinfo id="left_1" depart="5.00" departLane="52o_0" departPos="5.10" departSpeed="0.00" departDelay="3.00" arrival="99.00" arrivalLane="51i_0" arrivalPos="10.00" arrivalSpeed="10.75" duration="94.00" routeLength="1015.10" waitingTime="0.00" waitingCount="0" stopTime="0.00" timeLoss="14.89" rerouteNo="0" devices="tripinfo_left_1" vType="passenger" speedFactor="0.94" vaporized=""/>
    <tripinfo id="left_3" depart="10.00" departLane="52o_0" departPos="5.10" departSpeed="0.00" departDelay="7.00" arrival="101.00" arrivalLane="51i_0" arrivalPos="10.00" arrivalSpeed="11.75" duration="91.00" routeLength="1015.10" waitingTime="0.00" waitingCount="0" stopTime="0.00" timeLoss="18.00" rerouteNo="0" devices="tripinfo_left_3" vType="passenger" speedFactor="1.08" vaporized=""/>
    <tripinfo id="right_8" depart="13.00" departLane="51o_0" departPos="5.10" departSpeed="0.00" departDelay="2.00" arrival="107.00" arrivalLane="52i_0" arrivalPos="10.00" arrivalSpeed="10.69" duration="94.00" routeLength="1015.10" waitingTime="0.00" waitingCount="0" stopTime="0.00" timeLoss="14.91" rerouteNo="0" devices="tripinfo_right_8" vType="passenger" speedFactor="0.94" vaporized=""/>
    <tripinfo id="left_7" depart="15.00" departLane="52o_0" departPos="5.10" departSpeed="0.00" departDelay="5.00" arrival="112.00" arrivalLane="51i_0" arrivalPos="10.00" arrivalSpeed="10.44" duration="97.00" routeLength="1015.10" waitingTime="0.00" waitingCount="0" stopTime="0.00" timeLoss="15.16" rerouteNo="0" devices="tripinfo_left_7" vType="passenger" speedFactor="0.89" vaporized=""/>
    <tripinfo id="left_12" depart="22.00" departLane="52o_0" departPos="5.10" departSpeed="0.00" departDelay="0.00" arrival="114.00" arrivalLane="51i_0" arrivalPos="10.00" arrivalSpeed="10.84" duration="92.00" routeLength="1015.10" waitingTime="0.00" waitingCount="0" stopTime="0.00" timeLoss="18.10" rerouteNo="0" devices="tripinfo_left_12" vType="passenger" speedFactor="1.05" vaporized=""/>
    <tripinfo id="right_9" depart="18.00" departLane="51o_0" departPos="5.10" departSpeed="0.00" departDelay="4.00" arrival="117.00" arrivalLane="52i_0" arrivalPos="10.00" arrivalSpeed="10.09" duration="99.00" routeLength="1015.10" waitingTime="0.00" waitingCount="0" stopTime="0.00" timeLoss="14.99" rerouteNo="0" devices="tripinfo_right_9" vType="passenger" speedFactor="0.86" vaporized=""/>
    <tripinfo id="right_11" depart="23.00" departLane="51o_0" departPos="5.10" departSpeed="0.00" departDelay="1.00" arrival="119.00" arrivalLane="52i_0" arrivalPos="10.00" arrivalSpeed="10.73" duration="96.00" routeLength="1015.10" waitingTime="0.00" waitingCount="0" stopTime="0.00" timeLoss="20.64" rerouteNo="0" devices="tripinfo_right_11" vType="passenger" speedFactor="1.03" vaporized=""/>
    <tripinfo id="right_14" depart="28.00" departLane="51o_0" departPos="5.10" departSpeed="0.00" departDelay="3.00" arrival="120.00" arrivalLane="52i_0" arrivalPos="10.00" arrivalSpeed="10.83" duration="92.00" routeLength="1015.10" waitingTime="0.00" waitingCount="0" stopTime="0.00" timeLoss="15.69" rerouteNo="0" devices="tripinfo_right_14" vType="passenger" speedFactor="0.99" vaporized=""/>
    <tripinfo id="left_15" depart="28.00" departLane="52o_0" departPos="5.10" departSpeed="0.00" departDelay="0.00" arrival="123.00" arrivalLane="51i_0" arrivalPos="10.00" arrivalSpeed="10.62" duration="95.00" routeLength="1015.10" waitingTime="0.00" waitingCount="0" stopTime="0.00" timeLoss="14.99" rerouteNo="0" devices="tripinfo_left_15" vType="passenger" speedFactor="0.93" vaporized=""/>
    <tripinfo id="right_16" depart="33.00" departLane="51o_0" departPos="5.10" departSpeed="0.00" departDelay="2.00" arrival="130.00" arrivalLane="52i_0" arrivalPos="10.00" arrivalSpeed="10.06" duration="97.00" routeLength="1015.10" waitingTime="0.00" waitingCount="0" stopTime="0.00" timeLoss="15.00" rerouteNo="0" devices="tripinfo_right_16" vType="passenger" speedFactor="0.88" vaporized=""/>
    <tripinfo id="right_20" depart="38.00" departLane="51o_0" departPos="5.10" departSpeed="0.00" departDelay="4.00" arrival="132.00" arrivalLane="52i_0" arrivalPos="10.00" arrivalSpeed="10.71" duration="94.00" routeLength="1015.10" waitingTime="1.00" waitingCount="1" stopTime="0.00" timeLoss="18.82" rerouteNo="0" devices="tripinfo_right_20" vType="passenger" speedFactor="1.02" vaporized=""/>
    <tripinfo id="left_23" depart="41.00" departLane="52o_0" departPos="5.10" departSpeed="0.00" departDelay="0.00" arrival="138.00" arrivalLane="51i_0" arrivalPos="10.00" arrivalSpeed="10.18" duration="97.00" routeLength="1015.10" waitingTime="0.00" waitingCount="0" stopTime="0.00" timeLoss="15.16" rerouteNo="0" devices="tripinfo_left_23" vType="passenger" speedFactor="0.89" vaporized=""/>
    <tripinfo id="down_6" depart="6.00" departLane="54o_0" departPos="5.10" departSpeed="0.00" departDelay="0.00" arrival="145.00" arrivalLane="53i_0" arrivalPos="10.00" arrivalSpeed="12.00" duration="139.00" routeLength="1015.10" waitingTime="38.00" waitingCount="1" stopTime="0.00" timeLoss="64.50" rerouteNo="0" devices="tripinfo_down_6" vType="passenger" speedFactor="1.05" vaporized=""/>
    <tripinfo id="down_13" depart="23.00" departLane="54o_0" departPos="5.10" departSpeed="0.00" departDelay="0.00" arrival="146.00" arrivalLane="53i_0" arrivalPos="10.00" arrivalSpeed="12.17" duration="123.00" routeLength="1015.10" waitingTime="23.00" waitingCount="1" stopTime="0.00" timeLoss="51.89" rerouteNo="0" devices="tripinfo_down_13" vType="passenger" speedFactor="1.12" vaporized=""/>
    <tripinfo id="up_5" depart="4.00" departLane="53o_0" departPos="5.10" departSpeed="0.00" departDelay="0.00" arrival="155.00" arrivalLane="54i_0" arrivalPos="10.00" arrivalSpeed="9.63" duration="151.00" routeLength="1015.10" waitingTime="39.00" waitingCount="1" stopTime="0.00" timeLoss="64.61" rerouteNo="0" devices="tripinfo_up_5" vType="passenger" speedFactor="0.83" vaporized=""/>
    <tripinfo id="up_10" depart="16.00" departLane="53o_0" departPos="5.10" departSpeed="0.00" departDelay="0.00" arrival="157.00" arrivalLane="54i_0" arrivalPos="10.00" arrivalSpeed="10.68" duration="141.00" routeLength="1015.10" waitingTime="29.00" waitingCount="1" stopTime="0.00" timeLoss="68.34" rerouteNo="0" devices="tripinfo_up_10" vType="passenger" speedFactor="1.09" vaporized=""/>
    <tripinfo id="right_21" depart="44.00" departLane="51o_0" departPos="5.10" departSpeed="0.00" departDelay="7.00" arrival="157.00" arrivalLane="52i_0" arrivalPos="10.00" arrivalSpeed="10.93" duration="113.00" routeLength="1015.10" waitingTime="11.00" waitingCount="1" stopTime="0.00" timeLoss="37.50" rerouteNo="0" devices="tripinfo_right_21" vType="passenger" speedFactor="1.01" vaporized=""/>
    <tripinfo id="right_22" depart="49.00" departLane="51o_0" departPos="5.10" departSpeed="0.00" departDelay="9.00" arrival="161.00" arrivalLane="52i_0" arrivalPos="10.00" arrivalSpeed="11.37" duration="112.00" routeLength="1015.10" waitingTime="8.00" waitingCount="1" stopTime="0.00" timeLoss="34.53" rerouteNo="0" devices="tripinfo_right_22" vType="passenger" speedFactor="0.98" vaporized=""/>
    <tripinfo id="left_25" depart="46.00" departLane="52o_0" departPos="5.10" departSpeed="0.00" departDelay="4.00" arrival="163.00" arrivalLane="51i_0" arrivalPos="10.00" arrivalSpeed="10.08" duration="117.00" routeLength="1015.10" waitingTime="8.00" waitingCount="1" stopTime="0.00" timeLoss="34.36" rerouteNo="0" devices="tripinfo_left_25" vType="passenger" speedFactor="0.87" vaporized=""/>
    <tripinfo id="left_29" depart="51.00" departLane="52o_0" departPos="5.10" departSpeed="0.00" departDelay="2.00" arrival="165.00" arrivalLane="51i_0" arrivalPos="10.00" arrivalSpeed="10.57" duration="114.00" routeLength="1015.10" waitingTime="6.00" waitingCount="1" stopTime="0.00" timeLoss="34.37" rerouteNo="0" devices="tripinfo_left_29" vType="passenger" speedFactor="0.93" vaporized=""/>
    <tripinfo id="left_37" depart="67.00" departLane="52o_0" departPos="5.10" departSpeed="0.00" departDelay="0.00" arrival="167.00" arrivalLane="51i_0" arrivalPos="10.00" arrivalSpeed="11.17" duration="100.00" routeLength="1015.10" waitingTime="0.00" waitingCount="0" stopTime="0.00" timeLoss="30.23" rerouteNo="0" devices="tripinfo_left_37" vType="passenger" speedFactor="1.18" vaporized=""/>
    <tripinfo id="left_40" depart="74.00" departLane="52o_0" departPos="5.10" departSpeed="0.00" departDelay="0.00" arrival="168.00" arrivalLane="51i_0" arrivalPos="10.00" arrivalSpeed="10.89" duration="94.00" routeLength="1015.10" waitingTime="0.00" waitingCount="0" stopTime="0.00" timeLoss="19.46" rerouteNo="0" devices="tripinfo_left_40" vType="passenger" speedFactor="1.03" vaporized=""/>
    <tripinfo id="right_24" depart="54.00" departLane="51o_0" departPos="5.10" departSpeed="0.00" departDelay="12.00" arrival="170.00" arrivalLane="52i_0" arrivalPos="10.00" arrivalSpeed="9.51" duration="116.00" routeLength="1015.10" waitingTime="4.00" waitingCount="1" stopTime="0.00" timeLoss="29.25" rerouteNo="0" devices="tripinfo_right_24" vType="passenger" speedFactor="0.83" vaporized=""/>
    <tripinfo id="left_43" depart="79.00" departLane="52o_0" departPos="5.10" departSpeed="0.00" departDelay="3.00" arrival="170.00" arrivalLane="51i_0" arrivalPos="10.00" arrivalSpeed="11.58" duration="91.00" routeLength="1015.10" waitingTime="0.00" waitingCount="0" stopTime="0.00" timeLoss="16.62" rerouteNo="0" devices="tripinfo_left_43" vType="passenger" speedFactor="1.04" vaporized=""/>
    <tripinfo id="right_26" depart="59.00" departLane="51o_0" departPos="5.10" departSpeed="0.00" departDelay="15.00" arrival="172.00" arrivalLane="52i_0" arrivalPos="10.00" arrivalSpeed="9.92" duration="113.00" routeLength="1015.10" waitingTime="1.00" waitingCount="1" stopTime="0.00" timeLoss="32.82" rerouteNo="0" devices="tripinfo_right_26" vType="passenger" speedFactor="0.92" vaporized=""/>
    <tripinfo id="left_45" depart="84.00" departLane="52o_0" departPos="5.10" departSpeed="0.00" departDelay="6.00" arrival="172.00" arrivalLane="51i_0" arrivalPos="10.00" arrivalSpeed="12.54" duration="88.00" routeLength="1015.10" waitingTime="0.00" waitingCount="0" stopTime="0.00" timeLoss="15.03" rerouteNo="0" devices="tripinfo_left_45" vType="passenger" speedFactor="1.09" vaporized=""/>
    <tripinfo id="right_27" depart="64.00" departLane="51o_0" departPos="5.10" departSpeed="0.00" departDelay="17.00" arrival="174.00" arrivalLane="52i_0" arrivalPos="10.00" arrivalSpeed="10.59" duration="110.00" routeLength="1015.10" waitingTime="0.00" waitingCount="0" stopTime="0.00" timeLoss="31.29" rerouteNo="0" devices="tripinfo_right_27" vType="passenger" speedFactor="0.95" vaporized=""/>
    <tripinfo id="right_28" depart="69.00" departLane="51o_0" departPos="5.10" departSpeed="0.00" departDelay="21.00" arrival="176.00" arrivalLane="52i_0" arrivalPos="10.00" arrivalSpeed="11.11" duration="107.00" routeLength="1015.10" waitingTime="0.00" waitingCount="0" stopTime="0.00" timeLoss="35.75" rerouteNo="0" devices="tripinfo_right_28" vType="passenger" speedFactor="1.13" vaporized=""/>
    <tripinfo id="right_31" depart="74.00" departLane="51o_0" departPos="5.10" departSpeed="0.00" departDelay="18.00" arrival="177.00" arrivalLane="52i_0" arrivalPos="10.00" arrivalSpeed="11.11" duration="103.00" routeLength="1015.10" waitingTime="0.00" waitingCount="0" stopTime="0.00" timeLoss="33.26" rerouteNo="0" devices="tripinfo_right_31" vType="passenger" speedFactor="1.15" vaporized=""/>
    <tripinfo id="right_32" depart="79.00" departLane="51o_0" departPos="5.10" departSpeed="0.00" departDelay="22.00" arrival="179.00" arrivalLane="52i_0" arrivalPos="10.00" arrivalSpeed="11.47" duration="100.00" routeLength="1015.10" waitingTime="0.00" waitingCount="0" stopTime="0.00" timeLoss="24.27" rerouteNo="0" devices="tripinfo_right_32" vType="passenger" speedFactor="1.01" vaporized=""/>
    <tripinfo id="right_34" depart="84.00" departLane="51o_0" departPos="5.10" departSpeed="0.00" departDelay="23.00" arrival="181.00" arrivalLane="52i_0" arrivalPos="10.00" arrivalSpeed="11.49" duration="97.00" routeLength="1015.10" waitingTime="0.00" waitingCount="0" stopTime="0.00" timeLoss="20.54" rerouteNo="0" devices="tripinfo_right_34" vType="passenger" speedFactor="0.99" vaporized=""/>
    <tripinfo id="right_35" depart="89.00" departLane="51o_0" departPos="5.10" departSpeed="0.00" departDelay="26.00" arrival="183.00" arrivalLane="52i_0" arrivalPos="10.00" arrivalSpeed="11.66" duration="94.00" routeLength="1015.10" waitingTime="0.00" waitingCount="0" stopTime="0.00" timeLoss="18.19" rerouteNo="0" devices="tripinfo_right_35" vType="passenger" speedFactor="1.02" vaporized=""/>
    <tripinfo id="left_47" depart="89.00" departLane="52o_0" departPos="5.10" departSpeed="0.00" departDelay="6.00" arrival="186.00" arrivalLane="51i_0" arrivalPos="10.00" arrivalSpeed="10.32" duration="97.00" routeLength="1015.10" waitingTime="0.00" waitingCount="0" stopTime="0.00" timeLoss="15.95" rerouteNo="0" devices="tripinfo_left_47" vType="passenger" speedFactor="0.90" vaporized=""/>
    <tripinfo id="right_36" depart="94.00" departLane="51o_0" departPos="5.10" departSpeed="0.00" departDelay="30.00" arrival="188.00" arrivalLane="52i_0" arrivalPos="10.00" arrivalSpeed="11.19" duration="94.00" routeLength="1015.10" waitingTime="1.00" waitingCount="1" stopTime="0.00" timeLoss="16.85" rerouteNo="0" devices="tripinfo_right_36" vType="passenger" speedFactor="0.97" vaporized=""/>
    <tripinfo id="right_38" depart="101.00" departLane="51o_0" departPos="5.10" departSpeed="0.00" departDelay="32.00" arrival="190.00" arrivalLane="52i_0" arrivalPos="10.00" arrivalSpeed="11.55" duration="89.00" routeLength="1015.10" waitingTime="0.00" waitingCount="0" stopTime="0.00" timeLoss="16.92" rerouteNo="0" devices="tripinfo_right_38" vType="passenger" speedFactor="1.10" vaporized=""/>
    <tripinfo id="right_42" depart="106.00" departLane="51o_0" departPos="5.10" departSpeed="0.00" departDelay="30.00" arrival="193.00" arrivalLane="52i_0" arrivalPos="10.00" arrivalSpeed="11.97" duration="87.00" routeLength="1015.10" waitingTime="0.00" waitingCount="0" stopTime="0.00" timeLoss="14.74" rerouteNo="0" devices="tripinfo_right_42" vType="passenger" speedFactor="1.09" vaporized=""/>
    <tripinfo id="left_50" depart="94.00" departLane="52o_0" departPos="5.10" departSpeed="0.00" departDelay="6.00" arrival="194.00" arrivalLane="51i_0" arrivalPos="10.00" arrivalSpeed="9.69" duration="100.00" routeLength="1015.10" waitingTime="0.00" waitingCount="0" stopTime="0.00" timeLoss="16.21" rerouteNo="0" devices="tripinfo_left_50" vType="passenger" speedFactor="0.85" vaporized=""/>
    <tripinfo id="left_54" depart="101.00" departLane="52o_0" departPos="5.10" departSpeed="0.00" departDelay="0.00" arrival="196.00" arrivalLane="51i_0" arrivalPos="10.00" arrivalSpeed="10.62" duration="95.00" routeLength="1015.10" waitingTime="0.00" waitingCount="0" stopTime="0.00" timeLoss="18.95" rerouteNo="0" devices="tripinfo_left_54" vType="passenger" speedFactor="1.00" vaporized=""/>
    <tripinfo id="right_44" depart="112.00" departLane="51o_0" departPos="5.10" departSpeed="0.00" departDelay="34.00" arrival="201.00" arrivalLane="52i_0" arrivalPos="10.00" arrivalSpeed="12.14" duration="89.00" routeLength="1015.10" waitingTime="0.00" waitingCount="0" stopTime="0.00" timeLoss="14.95" rerouteNo="0" devices="tripinfo_right_44" vType="passenger" speedFactor="1.04" vaporized=""/>
    <tripinfo id="right_46" depart="117.00" departLane="51o_0" departPos="5.10" departSpeed="0.00" departDelay="36.00" arrival="208.00" arrivalLane="52i_0" arrivalPos="10.00" arrivalSpeed="11.58" duration="91.00" routeLength="1015.10" waitingTime="0.00" waitingCount="0" stopTime="0.00" timeLoss="14.80" rerouteNo="0" devices="tripinfo_right_46" vType="passenger" speedFactor="1.00" vaporized=""/>
    <tripinfo id="left_64" depart="120.00" departLane="52o_0" departPos="5.10" departSpeed="0.00" departDelay="4.00" arrival="214.00" arrivalLane="51i_0" arrivalPos="10.00" arrivalSpeed="10.53" duration="94.00" routeLength="1015.10" waitingTime="0.00" waitingCount="0" stopTime="0.00" timeLoss="14.42" rerouteNo="0" devices="tripinfo_left_64" vType="passenger" speedFactor="0.94" vaporized=""/>
    <tripinfo id="right_48" depart="123.00" departLane="51o_0" departPos="5.10" departSpeed="0.00" departDelay="39.00" arrival="221.00" arrivalLane="52i_0" arrivalPos="10.00" arrivalSpeed="10.23" duration="98.00" routeLength="1015.10" waitingTime="0.00" waitingCount="0" stopTime="0.00" timeLoss="15.89" rerouteNo="0" devices="tripinfo_right_48" vType="passenger" speedFactor="0.88" vaporized=""/>
    <tripinfo id="left_65" depart="125.00" departLane="52o_0" departPos="5.10" departSpeed="0.00" departDelay="8.00" arrival="222.00" arrivalLane="51i_0" arrivalPos="10.00" arrivalSpeed="9.97" duration="97.00" routeLength="1015.10" waitingTime="0.00" waitingCount="0" stopTime="0.00" timeLoss="15.09" rerouteNo="0" devices="tripinfo_left_65" vType="passenger" speedFactor="0.88" vaporized=""/>
    <tripinfo id="right_51" depart="128.00" departLane="51o_0" departPos="5.10" departSpeed="0.00" departDelay="36.00" arrival="223.00" arrivalLane="52i_0" arrivalPos="10.00" arrivalSpeed="10.84" duration="95.00" routeLength="1015.10" waitingTime="0.00" waitingCount="0" stopTime="0.00" timeLoss="25.32" rerouteNo="0" devices="tripinfo_right_51" vType="passenger" speedFactor="1.17" vaporized=""/>
    <tripinfo id="right_57" depart="133.00" departLane="51o_0" departPos="5.10" departSpeed="0.00" departDelay="29.00" arrival="225.00" arrivalLane="52i_0" arrivalPos="10.00" arrivalSpeed="11.06" duration="92.00" routeLength="1015.10" waitingTime="0.00" waitingCount="0" stopTime="0.00" timeLoss="21.46" rerouteNo="0" devices="tripinfo_right_57" vType="passenger" speedFactor="1.14" vaporized=""/>
    <tripinfo id="right_60" depart="138.00" departLane="51o_0" departPos="5.10" departSpeed="0.00" departDelay="30.00" arrival="227.00" arrivalLane="52i_0" arrivalPos="10.00" arrivalSpeed="12.00" duration="89.00" routeLength="1015.10" waitingTime="0.00" waitingCount="0" stopTime="0.00" timeLoss="15.84" rerouteNo="0" devices="tripinfo_right_60" vType="passenger" speedFactor="1.08" vaporized=""/>
    <tripinfo id="left_66" depart="130.00" departLane="52o_0" departPos="5.10" departSpeed="0.00" departDelay="10.00" arrival="227.00" arrivalLane="51i_0" arrivalPos="10.00" arrivalSpeed="10.33" duration="97.00" routeLength="1015.10" waitingTime="0.00" waitingCount="0" stopTime="0.00" timeLoss="15.91" rerouteNo="0" devices="tripinfo_left_66" vType="passenger" speedFactor="0.91" vaporized=""/>
    <tripinfo id="left_67" depart="135.00" departLane="52o_0" departPos="5.10" departSpeed="0.00" departDelay="12.00" arrival="230.00" arrivalLane="51i_0" arrivalPos="10.00" arrivalSpeed="10.54" duration="95.00" routeLength="1015.10" waitingTime="0.00" waitingCount="0" stopTime="0.00" timeLoss="14.84" rerouteNo="0" devices="tripinfo_left_67" vType="passenger" speedFactor="0.91" vaporized=""/>
    <tripinfo id="left_68" depart="140.00" departLane="52o_0" departPos="5.10" departSpeed="0.00" departDelay="16.00" arrival="232.00" arrivalLane="51i_0" arrivalPos="10.00" arrivalSpeed="11.11" duration="92.00" routeLength="1015.10" waitingTime="0.00" waitingCount="0" stopTime="0.00" timeLoss="17.48" rerouteNo="0" devices="tripinfo_left_68" vType="passenger" speedFactor="1.04" vaporized=""/>
    <tripinfo id="right_62" depart="143.00" departLane="51o_0" departPos="5.10" departSpeed="0.00" departDelay="34.00" arrival="233.00" arrivalLane="52i_0" arrivalPos="10.00" arrivalSpeed="11.02" duration="90.00" routeLength="1015.10" waitingTime="0.00" waitingCount="0" stopTime="0.00" timeLoss="14.60" rerouteNo="0" devices="tripinfo_right_62" vType="passenger" speedFactor="1.02" vaporized=""/>
    <tripinfo id="down_17" depart="31.00" departLane="54o_0" departPos="5.10" departSpeed="0.00" departDelay="0.00" arrival="249.00" arrivalLane="53i_0" arrivalPos="10.00" arrivalSpeed="10.81" duration="218.00" routeLength="1015.10" waitingTime="106.00" waitingCount="2" stopTime="0.00" timeLoss="138.57" rerouteNo="0" devices="tripinfo_down_17" vType="passenger" speedFactor="0.94" vaporized=""/>
    <tripinfo id="up_18" depart="32.00" departLane="53o_0" departPos="5.10" departSpeed="0.00" departDelay="0.00" arrival="249.00" arrivalLane="54i_0" arrivalPos="10.00" arrivalSpeed="10.75" duration="217.00" routeLength="1015.10" waitingTime="107.00" waitingCount="2" stopTime="0.00" timeLoss="137.60" rerouteNo="0" devices="tripinfo_up_18" vType="passenger" speedFactor="0.94" vaporized=""/>
    <tripinfo id="down_19" depart="36.00" departLane="54o_0" departPos="5.10" departSpeed="0.00" departDelay="3.00" arrival="250.00" arrivalLane="53i_0" arrivalPos="10.00" arrivalSpeed="10.65" duration="214.00" routeLength="1015.10" waitingTime="101.00" waitingCount="2" stopTime="0.00" timeLoss="144.25" rerouteNo="0" devices="tripinfo_down_19" vType="passenger" speedFactor="1.16" vaporized=""/>
    <tripinfo id="up_30" depart="51.00" departLane="53o_0" departPos="5.10" departSpeed="0.00" departDelay="0.00" arrival="251.00" arrivalLane="54i_0" arrivalPos="10.00" arrivalSpeed="10.97" duration="200.00" routeLength="1015.10" waitingTime="90.00" waitingCount="1" stopTime="0.00" timeLoss="130.32" rerouteNo="0" devices="tripinfo_up_30" vType="passenger" speedFactor="1.18" vaporized=""/>
    <tripinfo id="down_33" depart="57.00" departLane="54o_0" departPos="5.10" departSpeed="0.00" departDelay="0.00" arrival="252.00" arrivalLane="53i_0" arrivalPos="10.00" arrivalSpeed="11.80" duration="195.00" routeLength="1015.10" waitingTime="87.00" waitingCount="1" stopTime="0.00" timeLoss="125.33" rerouteNo="0" devices="tripinfo_down_33" vType="passenger" speedFactor="1.17" vaporized=""/>
    <tripinfo id="up_52" depart="93.00" departLane="53o_0" departPos="5.10" departSpeed="0.00" departDelay="0.00" arrival="252.00" arrivalLane="54i_0" arrivalPos="10.00" arrivalSpeed="10.95" duration="159.00" routeLength="1015.10" waitingTime="53.00" waitingCount="1" stopTime="0.00" timeLoss="83.91" rerouteNo="0" devices="tripinfo_up_52" vType="passenger" speedFactor="1.02" vaporized=""/>
    <tripinfo id="down_39" depart="72.00" departLane="54o_0" departPos="5.10" departSpeed="0.00" departDelay="0.00" arrival="256.00" arrivalLane="53i_0" arrivalPos="10.00" arrivalSpeed="10.27" duration="184.00" routeLength="1015.10" waitingTime="75.00" waitingCount="1" stopTime="0.00" timeLoss="103.18" rerouteNo="0" devices="tripinfo_down_39" vType="passenger" speedFactor="0.90" vaporized=""/>
    <tripinfo id="down_41" depart="77.00" departLane="54o_0" departPos="5.10" departSpeed="0.00" departDelay="3.00" arrival="258.00" arrivalLane="53i_0" arrivalPos="10.00" arrivalSpeed="11.08" duration="181.00" routeLength="1015.10" waitingTime="72.00" waitingCount="1" stopTime="0.00" timeLoss="102.80" rerouteNo="0" devices="tripinfo_down_41" vType="passenger" speedFactor="0.96" vaporized=""/>
    <tripinfo id="up_56" depart="103.00" departLane="53o_0" departPos="5.10" departSpeed="0.00" departDelay="0.00" arrival="258.00" arrivalLane="54i_0" arrivalPos="10.00" arrivalSpeed="10.34" duration="155.00" routeLength="1015.10" waitingTime="45.00" waitingCount="1" stopTime="0.00" timeLoss="73.34" rerouteNo="0" devices="tripinfo_up_56" vType="passenger" speedFactor="0.90" vaporized=""/>
    <tripinfo id="up_58" depart="108.00" departLane="53o_0" departPos="5.10" departSpeed="0.00" departDelay="4.00" arrival="259.00" arrivalLane="54i_0" arrivalPos="10.00" arrivalSpeed="10.53" duration="151.00" routeLength="1015.10" waitingTime="43.00" waitingCount="1" stopTime="0.00" timeLoss="76.17" rerouteNo="0" devices="tripinfo_up_58" vType="passenger" speedFactor="1.02" vaporized=""/>
    <tripinfo id="up_59" depart="113.00" departLane="53o_0" departPos="5.10" departSpeed="0.00" departDelay="7.00" arrival="261.00" arrivalLane="54i_0" arrivalPos="10.00" arrivalSpeed="11.02" duration="148.00" routeLength="1015.10" waitingTime="38.00" waitingCount="1" stopTime="0.00" timeLoss="70.39" rerouteNo="0" devices="tripinfo_up_59" vType="passenger" speedFactor="0.97" vaporized=""/>
    <tripinfo id="up_61" depart="118.00" departLane="53o_0" departPos="5.10" departSpeed="0.00" departDelay="10.00" arrival="263.00" arrivalLane="54i_0" arrivalPos="10.00" arrivalSpeed="11.54" duration="145.00" routeLength="1015.10" waitingTime="37.00" waitingCount="1" stopTime="0.00" timeLoss="73.34" rerouteNo="0" devices="tripinfo_up_61" vType="passenger" speedFactor="1.12" vaporized=""/>
    <tripinfo id="down_49" depart="85.00" departLane="54o_0" departPos="5.10" departSpeed="0.00" departDelay="0.00" arrival="264.00" arrivalLane="53i_0" arrivalPos="10.00" arrivalSpeed="9.82" duration="179.00" routeLength="1015.10" waitingTime="68.00" waitingCount="1" stopTime="0.00" timeLoss="94.44" rerouteNo="0" devices="tripinfo_down_49" vType="passenger" speedFactor="0.85" vaporized=""/>
    <tripinfo id="up_77" depart="135.00" departLane="53o_0" departPos="5.10" departSpeed="0.00" departDelay="0.00" arrival="265.00" arrivalLane="54i_0" arrivalPos="10.00" arrivalSpeed="11.50" duration="130.00" routeLength="1015.10" waitingTime="21.00" waitingCount="1" stopTime="0.00" timeLoss="52.52" rerouteNo="0" devices="tripinfo_up_77" vType="passenger" speedFactor="0.98" vaporized=""/>
    <tripinfo id="down_53" depart="98.00" departLane="54o_0" departPos="5.10" departSpeed="0.00" departDelay="0.00" arrival="266.00" arrivalLane="53i_0" arrivalPos="10.00" arrivalSpeed="10.43" duration="168.00" routeLength="1015.10" waitingTime="53.00" waitingCount="1" stopTime="0.00" timeLoss="95.44" rerouteNo="0" devices="tripinfo_down_53" vType="passenger" speedFactor="1.10" vaporized=""/>
    <tripinfo id="up_90" depart="162.00" departLane="53o_0" departPos="5.10" departSpeed="0.00" departDelay="0.00" arrival="266.00" arrivalLane="54i_0" arrivalPos="10.00" arrivalSpeed="11.44" duration="104.00" routeLength="1015.10" waitingTime="0.00" waitingCount="0" stopTime="0.00" timeLoss="28.78" rerouteNo="0" devices="tripinfo_up_90" vType="passenger" speedFactor="1.02" vaporized=""/>
    <tripinfo id="down_55" depart="103.00" departLane="54o_0" departPos="5.10" departSpeed="0.00" departDelay="2.00" arrival="267.00" arrivalLane="53i_0" arrivalPos="10.00" arrivalSpeed="10.14" duration="164.00" routeLength="1015.10" waitingTime="51.00" waitingCount="1" stopTime="0.00" timeLoss="87.96" rerouteNo="0" devices="tripinfo_down_55" vType="passenger" speedFactor="1.00" vaporized=""/>
    <tripinfo id="up_94" depart="170.00" departLane="53o_0" departPos="5.10" departSpeed="0.00" departDelay="0.00" arrival="268.00" arrivalLane="54i_0" arrivalPos="10.00" arrivalSpeed="11.80" duration="98.00" routeLength="1015.10" waitingTime="0.00" waitingCount="0" stopTime="0.00" timeLoss="25.53" rerouteNo="0" devices="tripinfo_up_94" vType="passenger" speedFactor="1.09" vaporized=""/>
    <tripinfo id="down_73" depart="129.00" departLane="54o_0" departPos="5.10" departSpeed="0.00" departDelay="0.00" arrival="269.00" arrivalLane="53i_0" arrivalPos="10.00" arrivalSpeed="10.44" duration="140.00" routeLength="1015.10" waitingTime="27.00" waitingCount="1" stopTime="0.00" timeLoss="66.48" rerouteNo="0" devices="tripinfo_down_73" vType="passenger" speedFactor="1.06" vaporized=""/>
    <tripinfo id="down_83" depart="149.00" departLane="54o_0" departPos="5.10" departSpeed="0.00" departDelay="0.00" arrival="271.00" arrivalLane="53i_0" arrivalPos="10.00" arrivalSpeed="11.29" duration="122.00" routeLength="1015.10" waitingTime="9.00" waitingCount="1" stopTime="0.00" timeLoss="44.30" rerouteNo="0" devices="tripinfo_down_83" vType="passenger" speedFactor="0.97" vaporized=""/>