<?xml version="1.0" encoding="UTF-8"?>

<!-- generated on Fri Oct 11 03:50:52 2019 by Eclipse SUMO Version 1.2.0
<configuration xmlns:xsi="http://www.w3.org/2001/XMLSchema-instance" xsi:noNamespaceSchemaLocation="http://sumo.dlr.de/xsd/sumoConfiguration.xsd">

    <input>
        <net-file value="data/cross.net.xml"/>
        <route-files value="data/cross.rou.xml"/>
        <additional-files value="data/cross.tlsp.xml"/>
    </input>

    <output>
        <tripinfo-output value="tripinfo_isolated.xml"/>
    </output>

    <time>
        <begin value="0"/>
        <step-length value="1"/>
    </time>

    <report>
        <verbose value="true"/>
        <no-step-log value="true"/>
    </report>

    <traci_server>
        <remote-port value="41819"/>
    </traci_server>

    <gui_only>
        <tracker-interval value="1"/>
    </gui_only>

</configuration>
-->

<tripinfos xmlns:xsi="http://www.w3.org/2001/XMLSchema-instance" xsi:noNamespaceSchemaLocation="http://sumo.dlr.de/xsd/tripinfo_file.xsd">
    <tripinfo id="left_0" depart="0.00" departLane="52o_0" departPos="5.10" departSpeed="0.00" departDelay="0.00" arrival="88.00" arrivalLane="51i_0" arrivalPos="10.00" arrivalSpeed="12.32" duration="88.00" routeLength="1015.10" waitingTime="0.00" waitingCount="0" stopTime="0.00" timeLoss="14.61" rerouteNo="0" devices="tripinfo_left_0" vType="passenger" speedFactor="1.06" vaporized=""/>
    <tripinfo id="right_2" depart="3.00" departLane="51o_0" departPos="5.10" departSpeed="0.00" departDelay="0.00" arrival="94.00" arrivalLane="52i_0" arrivalPos="10.00" arrivalSpeed="11.60" duration="91.00" routeLength="1015.10" waitingTime="0.00" waitingCount="0" stopTime="0.00" timeLoss="15.04" rerouteNo="0" devices="tripinfo_right_2" vType="passenger" speedFactor="1.01" vaporized=""/>
    <tripinfo id="right_4" depart="8.00" departLane="51o_0" departPos="5.10" departSpeed="0.00" departDelay="4.00" arrival="98.00" arrivalLane="52i_0" arrivalPos="10.00" arrivalSpeed="11.66" duration="90.00" routeLength="1015.10" waitingTime="0.00" waitingCount="0" stopTime="0.00" timeLoss="14.92" rerouteNo="0" devices="tripinfo_right_4" vType="passenger" speedFactor="1.03" vaporized=""/>
    <tripinfo id="left_1" depart="5.00" departLane="52o_0" departPos="5.10" departSpeed="0.00" departDelay="3.00" arrival="99.00" arrivalLane="51i_0" arrivalPos="10.00" arrivalSpeed="10.75" duration="94.00" routeLength="1015.10" waitingTime="0.00" waitingCount="0" stopTime="0.00" timeLoss="14.89" rerouteNo="0" devices="tripinfo_left_1" vType="passenger" speedFactor="0.94" vaporized=""/>
    <tripinfo id="left_3" depart="10.00" departLane="52o_0" departPos="5.10" departSpeed="0.00" departDelay="7.00" arrival="101.00" arrivalLane="51i_0" arrivalPos="10.00" arrivalSpeed="11.75" duration="91.00" routeLength="1015.10" waitingTime="0.00" waitingCount="0" stopTime="0.00" timeLoss="18.00" rerouteNo="0" devices="tripinfo_left_3" vType="passenger" speedFactor="1.08" vaporized=""/>
    <tripinfo id="right_8" depart="13.00" departLane="51o_0" departPos="5.10" departSpeed="0.00" departDelay="2.00" arrival="107.00" arrivalLane="52i_0" arrivalPos="10.00" arrivalSpeed="10.69" duration="94.00" routeLength="1015.10" waitingTime="0.00" waitingCount="0" stopTime="0.00" timeLoss="14.91" rerouteNo="0" devices="tripinfo_right_8" vType="passenger" speedFactor="0.94" vaporized=""/>
    <tripinfo id="left_7" depart="15.00" departLane="52o_0" departPos="5.10" departSpeed="0.00" departDelay="5.00" arrival="113.00" arrivalLane="51i_0" arrivalPos="10.00" arrivalSpeed="10.36" duration="98.00" routeLength="1015.10" waitingTime="0.00" waitingCount="0" stopTime="0.00" timeLoss="15.35" rerouteNo="0" devices="tripinfo_left_7" vType="passenger" speedFactor="0.89" vaporized=""/>
    <tripinfo id="left_12" depart="22.00" departLane="52o_0" departPos="5.10" departSpeed="0.00" departDelay="0.00" arrival="114.00" arrivalLane="51i_0" arrivalPos="10.00" arrivalSpeed="10.26" duration="92.00" routeLength="1015.10" waitingTime="0.00" waitingCount="0" stopTime="0.00" timeLoss="18.17" rerouteNo="0" devices="tripinfo_left_12" vType="passenger" speedFactor="1.05" vaporized=""/>
    <tripinfo id="right_9" depart="18.00" departLane="51o_0" departPos="5.10" departSpeed="0.00" departDelay="4.00" arrival="117.00" arrivalLane="52i_0" arrivalPos="10.00" arrivalSpeed="10.04" duration="99.00" routeLength="1015.10" waitingTime="0.00" waitingCount="0" stopTime="0.00" timeLoss="15.05" rerouteNo="0" devices="tripinfo_right_9" vType="passenger" speedFactor="0.86" vaporized=""/>
    <tripinfo id="right_11" depart="23.00" departLane="51o_0" departPos="5.10" departSpeed="0.00" departDelay="1.00" arrival="119.00" arrivalLane="52i_0" arrivalPos="10.00" arrivalSpeed="10.58" duration="96.00" routeLength="1015.10" waitingTime="0.00" waitingCount="0" stopTime="0.00" timeLoss="20.72" rerouteNo="0" devices="tripinfo_right_11" vType="passenger" speedFactor="1.03" vaporized=""/>
    <tripinfo id="right_14" depart="28.00" departLane="51o_0" departPos="5.10" departSpeed="0.00" departDelay="3.00" arrival="121.00" arrivalLane="52i_0" arrivalPos="10.00" arrivalSpeed="11.31" duration="93.00" routeLength="1015.10" waitingTime="0.00" waitingCount="0" stopTime="0.00" timeLoss="15.79" rerouteNo="0" devices="tripinfo_right_14" vType="passenger" speedFactor="0.99" vaporized=""/>
    <tripinfo id="left_15" depart="28.00" departLane="52o_0" departPos="5.10" departSpeed="0.00" departDelay="0.00" arrival="123.00" arrivalLane="51i_0" arrivalPos="10.00" arrivalSpeed="10.77" duration="95.00" routeLength="1015.10" waitingTime="0.00" waitingCount="0" stopTime="0.00" timeLoss="14.97" rerouteNo="0" devices="tripinfo_left_15" vType="passenger" speedFactor="0.93" vaporized=""/>
    <tripinfo id="right_16" depart="33.00" departLane="51o_0" departPos="5.10" departSpeed="0.00" departDelay="2.00" arrival="130.00" arrivalLane="52i_0" arrivalPos="10.00" arrivalSpeed="10.18" duration="97.00" routeLength="1015.10" waitingTime="0.00" waitingCount="0" stopTime="0.00" timeLoss="14.96" rerouteNo="0" devices="tripinfo_right_16" vType="passenger" speedFactor="0.88" vaporized=""/>
    <tripinfo id="right_20" depart="38.00" departLane="51o_0" departPos="5.10" departSpeed="0.00" departDelay="4.00" arrival="132.00" arrivalLane="52i_0" arrivalPos="10.00" arrivalSpeed="10.84" duration="94.00" routeLength="1015.10" waitingTime="1.00" waitingCount="1" stopTime="0.00" timeLoss="18.77" rerouteNo="0" devices="tripinfo_right_20" vType="passenger" speedFactor="1.02" vaporized=""/>
    <tripinfo id="left_23" depart="41.00" departLane="52o_0" departPos="5.10" departSpeed="0.00" departDelay="0.00" arrival="138.00" arrivalLane="51i_0" arrivalPos="10.00" arrivalSpeed="10.56" duration="97.00" routeLength="1015.10" waitingTime="0.00" waitingCount="0" stopTime="0.00" timeLoss="15.08" rerouteNo="0" devices="tripinfo_left_23" vType="passenger" speedFactor="0.89" vaporized=""/>
    <tripinfo id="down_6" depart="6.00" departLane="54o_0" departPos="5.10" departSpeed="0.00" departDelay="0.00" arrival="141.00" arrivalLane="53i_0" arrivalPos="10.00" arrivalSpeed="11.28" duration="135.00" routeLength="1015.10" waitingTime="35.00" waitingCount="1" stopTime="0.00" timeLoss="61.03" rerouteNo="0" devices="tripinfo_down_6" vType="passenger" speedFactor="1.05" vaporized=""/>
    <tripinfo id="down_13" depart="23.00" departLane="54o_0" departPos="5.10" departSpeed="0.00" departDelay="0.00" arrival="143.00" arrivalLane="53i_0" arrivalPos="10.00" arrivalSpeed="12.38" duration="120.00" routeLength="1015.10" waitingTime="20.00" waitingCount="1" stopTime="0.00" timeLoss="48.90" rerouteNo="0" devices="tripinfo_down_13" vType="passenger" speedFactor="1.12" vaporized=""/>
    <tripinfo id="down_17" depart="31.00" departLane="54o_0" departPos="5.10" departSpeed="0.00" departDelay="0.00" arrival="150.00" arrivalLane="53i_0" arrivalPos="10.00" arrivalSpeed="11.06" duration="119.00" routeLength="1015.10" waitingTime="14.00" waitingCount="1" stopTime="0.00" timeLoss="40.23" rerouteNo="0" devices="tripinfo_down_17" vType="passenger" speedFactor="0.94" vaporized=""/>
    <tripinfo id="up_5" depart="4.00" departLane="53o_0" departPos="5.10" departSpeed="0.00" departDelay="0.00" arrival="151.00" arrivalLane="54i_0" arrivalPos="10.00" arrivalSpeed="9.50" duration="147.00" routeLength="1015.10" waitingTime="36.00" waitingCount="1" stopTime="0.00" timeLoss="61.23" rerouteNo="0" devices="tripinfo_up_5" vType="passenger" speedFactor="0.83" vaporized=""/>
    <tripinfo id="down_19" depart="36.00" departLane="54o_0" departPos="5.10" departSpeed="0.00" departDelay="3.00" arrival="152.00" arrivalLane="53i_0" arrivalPos="10.00" arrivalSpeed="11.32" duration="116.00" routeLength="1015.10" waitingTime="10.00" waitingCount="1" stopTime="0.00" timeLoss="46.00" rerouteNo="0" devices="tripinfo_down_19" vType="passenger" speedFactor="1.16" vaporized=""/>
    <tripinfo id="up_10" depart="16.00" departLane="53o_0" departPos="5.10" departSpeed="0.00" departDelay="0.00" arrival="153.00" arrivalLane="54i_0" arrivalPos="10.00" arrivalSpeed="10.37" duration="137.00" routeLength="1015.10" waitingTime="26.00" waitingCount="1" stopTime="0.00" timeLoss="64.85" rerouteNo="0" devices="tripinfo_up_10" vType="passenger" speedFactor="1.09" vaporized=""/>
    <tripinfo id="down_33" depart="57.00" departLane="54o_0" departPos="5.10" departSpeed="0.00" departDelay="0.00" arrival="154.00" arrivalLane="53i_0" arrivalPos="10.00" arrivalSpeed="12.25" duration="97.00" routeLength="1015.10" waitingTime="0.00" waitingCount="0" stopTime="0.00" timeLoss="27.07" rerouteNo="0" devices="tripinfo_down_33" vType="passenger" speedFactor="1.17" vaporized=""/>
    <tripinfo id="up_18" depart="32.00" departLane="53o_0" departPos="5.10" departSpeed="0.00" departDelay="0.00" arrival="155.00" arrivalLane="54i_0" arrivalPos="10.00" arrivalSpeed="10.92" duration="123.00" routeLength="1015.10" waitingTime="13.00" waitingCount="1" stopTime="0.00" timeLoss="43.72" rerouteNo="0" devices="tripinfo_up_18" vType="passenger" speedFactor="0.94" vaporized=""/>
    <tripinfo id="up_30" depart="51.00" departLane="53o_0" departPos="5.10" departSpeed="0.00" departDelay="0.00" arrival="157.00" arrivalLane="54i_0" arrivalPos="10.00" arrivalSpeed="11.06" duration="106.00" routeLength="1015.10" waitingTime="0.00" waitingCount="0" stopTime="0.00" timeLoss="36.50" rerouteNo="0" devices="tripinfo_up_30" vType="passenger" speedFactor="1.18" vaporized=""/>
    <tripinfo id="down_39" depart="72.00" departLane="54o_0" departPos="5.10" departSpeed="0.00" departDelay="0.00" arrival="170.00" arrivalLane="53i_0" arrivalPos="10.00" arrivalSpeed="10.14" duration="98.00" routeLength="1015.10" waitingTime="0.00" waitingCount="0" stopTime="0.00" timeLoss="16.46" rerouteNo="0" devices="tripinfo_down_39" vType="passenger" speedFactor="0.90" vaporized=""/>
    <tripinfo id="down_41" depart="77.00" departLane="54o_0" departPos="5.10" departSpeed="0.00" departDelay="3.00" arrival="172.00" arrivalLane="53i_0" arrivalPos="10.00" arrivalSpeed="10.88" duration="95.00" routeLength="1015.10" waitingTime="0.00" waitingCount="0" stopTime="0.00" timeLoss="16.20" rerouteNo="0" devices="tripinfo_down_41" vType="passenger" speedFactor="0.96" vaporized=""/>
    <tripinfo id="down_49" depart="85.00" departLane="54o_0" departPos="5.10" departSpeed="0.00" departDelay="0.00" arrival="184.00" arrivalLane="53i_0" arrivalPos="10.00" arrivalSpeed="9.94" duration="99.00" routeLength="1015.10" waitingTime="0.00" waitingCount="0" stopTime="0.00" timeLoss="14.68" rerouteNo="0" devices="tripinfo_down_49" vType="passenger" speedFactor="0.85" vaporized=""/>
    <tripinfo id="up_52" depart="93.00" departLane="53o_0" departPos="5.10" departSpeed="0.00" departDelay="0.00" arrival="184.00" arrivalLane="54i_0" arrivalPos="10.00" arrivalSpeed="11.65" duration="91.00" routeLength="1015.10" waitingTime="0.00" waitingCount="0" stopTime="0.00" timeLoss="15.72" rerouteNo="0" devices="tripinfo_up_52" vType="passenger" speedFactor="1.02" vaporized=""/>
    <tripinfo id="down_53" depart="98.00" departLane="54o_0" departPos="5.10" departSpeed="0.00" departDelay="0.00" arrival="186.00" arrivalLane="53i_0" arrivalPos="10.00" arrivalSpeed="10.67" duration="88.00" routeLength="1015.10" waitingTime="0.00" waitingCount="0" stopTime="0.00" timeLoss="15.80" rerouteNo="0" devices="tripinfo_down_53" vType="passenger" speedFactor="1.10" vaporized=""/>
    <tripinfo id="down_55" depart="103.00" departLane="54o_0" departPos="5.10" departSpeed="0.00" departDelay="2.00" arrival="195.00" arrivalLane="53i_0" arrivalPos="10.00" arrivalSpeed="11.51" duration="92.00" routeLength="1015.10" waitingTime="0.00" waitingCount="0" stopTime="0.00" timeLoss="15.70" rerouteNo="0" devices="tripinfo_down_55" vType="passenger" speedFactor="1.00" vaporized=""/>
    <tripinfo id="up_56" depart="103.00" departLane="53o_0" departPos="5.10" departSpeed="0.00" departDelay="0.00" arrival="199.00" arrivalLane="54i_0" arrivalPos="10.00" arrivalSpeed="10.27" duration="96.00" routeLength="1015.10" waitingTime="0.00" waitingCount="0" stopTime="0.00" timeLoss="14.88" rerouteNo="0" devices="tripinfo_up_56" vType="passenger" speedFactor="0.90" vaporized=""/>
    <tripinfo id="up_58" depart="108.00" departLane="53o_0" departPos="5.10" departSpeed="0.00" departDelay="4.00" arrival="201.00" arrivalLane="54i_0" arrivalPos="10.00" arrivalSpeed="10.81" duration="93.00" routeLength="1015.10" waitingTime="0.00" waitingCount="0" stopTime="0.00" timeLoss="17.63" rerouteNo="0" devices="tripinfo_up_58" vType="passenger" speedFactor="1.02" vaporized=""/>
    <tripinfo id="up_59" depart="113.00" departLane="53o_0" departPos="5.10" departSpeed="0.00" departDelay="7.00" arrival="206.00" arrivalLane="54i_0" arrivalPos="10.00" arrivalSpeed="10.84" duration="93.00" routeLength="1015.10" waitingTime="0.00" waitingCount="0" stopTime="0.00" timeLoss="14.97" rerouteNo="0" devices="tripinfo_up_59" vType="passenger" speedFactor="0.97" vaporized=""/>
    <tripinfo id="up_61" depart="118.00" departLane="53o_0" departPos="5.10" departSpeed="0.00" departDelay="10.00" arrival="207.00" arrivalLane="54i_0" arrivalPos="10.00" arrivalSpeed="10.88" duration="89.00" routeLength="1015.10" waitingTime="0.00" waitingCount="0" stopTime="0.00" timeLoss="17.76" rerouteNo="0" devices="tripinfo_up_61" vType="passenger" speedFactor="1.12" vaporized=""/>
    <tripinfo id="down_73" depart="129.00" departLane="54o_0" departPos="5.10" departSpeed="0.00" departDelay="0.00" arrival="218.00" arrivalLane="53i_0" arrivalPos="10.00" arrivalSpeed="12.29" duration="89.00" routeLength="1015.10" waitingTime="0.00" waitingCount="0" stopTime="0.00" timeLoss="15.21" rerouteNo="0" devices="tripinfo_down_73" vType="passenger" speedFactor="1.06" vaporized=""/>
    <tripinfo id="right_21" depart="44.00" departLane="51o_0" departPos="5.10" departSpeed="0.00" departDelay="7.00" arrival="233.00" arrivalLane="52i_0" arrivalPos="10.00" arrivalSpeed="11.55" duration="189.00" routeLength="1015.10" waitingTime="86.00" waitingCount="1" stopTime="0.00" timeLoss="112.98" rerouteNo="0" devices="tripinfo_right_21" vType="passenger" speedFactor="1.01" vaporized=""/>
    <tripinfo id="right_22" depart="49.00" departLane="51o_0" departPos="5.10" departSpeed="0.00" departDelay="9.00" arrival="236.00" arrivalLane="52i_0" arrivalPos="10.00" arrivalSpeed="11.25" duration="187.00" routeLength="1015.10" waitingTime="83.00" waitingCount="1" stopTime="0.00" timeLoss="109.60" rerouteNo="0" devices="tripinfo_right_22" vType="passenger" speedFactor="0.98" vaporized=""/>
    <tripinfo id="left_25" depart="46.00" departLane="52o_0" departPos="5.10" departSpeed="0.00" departDelay="4.00" arrival="239.00" arrivalLane="51i_0" arrivalPos="10.00" arrivalSpeed="9.95" duration="193.00" routeLength="1015.10" waitingTime="83.00" waitingCount="1" stopTime="0.00" timeLoss="110.15" rerouteNo="0" devices="tripinfo_left_25" vType="passenger" speedFactor="0.87" vaporized=""/>
    <tripinfo id="left_29" depart="51.00" departLane="52o_0" departPos="5.10" departSpeed="0.00" departDelay="2.00" arrival="241.00" arrivalLane="51i_0" arrivalPos="10.00" arrivalSpeed="10.53" duration="190.00" routeLength="1015.10" waitingTime="81.00" waitingCount="1" stopTime="0.00" timeLoss="110.17" rerouteNo="0" devices="tripinfo_left_29" vType="passenger" speedFactor="0.93" vaporized=""/>
    <tripinfo id="left_37" depart="67.00" departLane="52o_0" departPos="5.10" departSpeed="0.00" departDelay="0.00" arrival="242.00" arrivalLane="51i_0" arrivalPos="10.00" arrivalSpeed="10.30" duration="175.00" routeLength="1015.10" waitingTime="66.00" waitingCount="1" stopTime="0.00" timeLoss="105.90" rerouteNo="0" devices="tripinfo_left_37" vType="passenger" speedFactor="1.18" vaporized=""/>
    <tripinfo id="left_40" depart="74.00" departLane="52o_0" departPos="5.10" departSpeed="0.00" departDelay="0.00" arrival="244.00" arrivalLane="51i_0" arrivalPos="10.00" arrivalSpeed="10.82" duration="170.00" routeLength="1015.10" waitingTime="62.00" waitingCount="1" stopTime="0.00" timeLoss="95.41" rerouteNo="0" devices="tripinfo_left_40" vType="passenger" speedFactor="1.03" vaporized=""/>
    <tripinfo id="right_24" depart="54.00" departLane="51o_0" departPos="5.10" departSpeed="0.00" departDelay="12.00" arrival="246.00" arrivalLane="52i_0" arrivalPos="10.00" arrivalSpeed="9.91" duration="192.00" routeLength="1015.10" waitingTime="79.00" waitingCount="1" stopTime="0.00" timeLoss="104.97" rerouteNo="0" devices="tripinfo_right_24" vType="passenger" speedFactor="0.83" vaporized=""/>
    <tripinfo id="left_43" depart="79.00" departLane="52o_0" departPos="5.10" departSpeed="0.00" departDelay="3.00" arrival="246.00" arrivalLane="51i_0" arrivalPos="10.00" arrivalSpeed="11.77" duration="167.00" routeLength="1015.10" waitingTime="58.00" waitingCount="1" stopTime="0.00" timeLoss="92.39" rerouteNo="0" devices="tripinfo_left_43" vType="passenger" speedFactor="1.04" vaporized=""/>
    <tripinfo id="right_26" depart="59.00" departLane="51o_0" departPos="5.10" departSpeed="0.00" departDelay="15.00" arrival="247.00" arrivalLane="52i_0" arrivalPos="10.00" arrivalSpeed="10.02" duration="188.00" routeLength="1015.10" waitingTime="75.00" waitingCount="1" stopTime="0.00" timeLoss="107.95" rerouteNo="0" devices="tripinfo_right_26" vType="passenger" speedFactor="0.92" vaporized=""/>
    <tripinfo id="left_45" depart="84.00" departLane="52o_0" departPos="5.10" departSpeed="0.00" departDelay="6.00" arrival="248.00" arrivalLane="51i_0" arrivalPos="10.00" arrivalSpeed="12.05" duration="164.00" routeLength="1015.10" waitingTime="55.00" waitingCount="1" stopTime="0.00" timeLoss="91.22" rerouteNo="0" devices="tripinfo_left_45" vType="passenger" speedFactor="1.09" vaporized=""/>
    <tripinfo id="right_27" depart="64.00" departLane="51o_0" departPos="5.10" departSpeed="0.00" departDelay="17.00" arrival="249.00" arrivalLane="52i_0" arrivalPos="10.00" arrivalSpeed="10.83" duration="185.00" routeLength="1015.10" waitingTime="72.00" waitingCount="1" stopTime="0.00" timeLoss="106.38" rerouteNo="0" devices="tripinfo_right_27" vType="passenger" speedFactor="0.95" vaporized=""/>
    <tripinfo id="left_47" depart="89.00" departLane="52o_0" departPos="5.10" departSpeed="0.00" departDelay="6.00" arrival="250.00" arrivalLane="51i_0" arrivalPos="10.00" arrivalSpeed="10.23" duration="161.00" routeLength="1015.10" waitingTime="50.00" waitingCount="1" stopTime="0.00" timeLoss="79.75" rerouteNo="0" devices="tripinfo_left_47" vType="passenger" speedFactor="0.90" vaporized=""/>
    <tripinfo id="right_28" depart="69.00" departLane="51o_0" departPos="5.10" departSpeed="0.00" departDelay="21.00" arrival="251.00" arrivalLane="52i_0" arrivalPos="10.00" arrivalSpeed="10.71" duration="182.00" routeLength="1015.10" waitingTime="68.00" waitingCount="1" stopTime="0.00" timeLoss="111.02" rerouteNo="0" devices="tripinfo_right_28" vType="passenger" speedFactor="1.13" vaporized=""/>
    <tripinfo id="right_31" depart="74.00" departLane="51o_0" departPos="5.10" departSpeed="0.00" departDelay="18.00" arrival="253.00" arrivalLane="52i_0" arrivalPos="10.00" arrivalSpeed="11.80" duration="179.00" routeLength="1015.10" waitingTime="66.00" waitingCount="1" stopTime="0.00" timeLoss="108.40" rerouteNo="0" devices="tripinfo_right_31" vType="passenger" speedFactor="1.15" vaporized=""/>
    <tripinfo id="right_32" depart="79.00" departLane="51o_0" departPos="5.10" departSpeed="0.00" departDelay="22.00" arrival="254.00" arrivalLane="52i_0" arrivalPos="10.00" arrivalSpeed="11.68" duration="175.00" routeLength="1015.10" waitingTime="61.00" waitingCount="1" stopTime="0.00" timeLoss="99.27" rerouteNo="0" devices="tripinfo_right_32" vType="passenger" speedFactor="1.01" vaporized=""/>
    <tripinfo id="left_50" depart="94.00" departLane="52o_0" departPos="5.10" departSpeed="0.00" departDelay="6.00" arrival="255.00" arrivalLane="51i_0" arrivalPos="10.00" arrivalSpeed="9.83" duration="161.00" routeLength="1015.10" waitingTime="47.00" waitingCount="1" stopTime="0.00" timeLoss="76.54" rerouteNo="0" devices="tripinfo_left_50" vType="passenger" speedFactor="0.85" vaporized=""/>
    <tripinfo id="right_34" depart="84.00" departLane="51o_0" departPos="5.10" departSpeed="0.00" departDelay="23.00" arrival="256.00" arrivalLane="52i_0" arrivalPos="10.00" arrivalSpeed="11.53" duration="172.00" routeLength="1015.10" waitingTime="59.00" waitingCount="1" stopTime="0.00" timeLoss="95.74" rerouteNo="0" devices="tripinfo_right_34" vType="passenger" speedFactor="0.99" vaporized=""/>
    <tripinfo id="left_54" depart="101.00" departLane="52o_0" departPos="5.10" departSpeed="0.00" departDelay="0.00" arrival="256.00" arrivalLane="51i_0" arrivalPos="10.00" arrivalSpeed="10.03" duration="155.00" routeLength="1015.10" waitingTime="41.00" waitingCount="1" stopTime="0.00" timeLoss="79.26" rerouteNo="0" devices="tripinfo_left_54" vType="passenger" speedFactor="1.00" vaporized=""/>
    <tripinfo id="down_83" depart="149.00" departLane="54o_0" departPos="5.10" departSpeed="0.00" departDelay="0.00" arrival="262.00" arrivalLane="53i_0" arrivalPos="10.00" arrivalSpeed="11.10" duration="113.00" routeLength="1015.10" waitingTime="8.00" waitingCount="1" stopTime="0.00" timeLoss="35.74" rerouteNo="0" devices="tripinfo_down_83" vType="passenger" speedFactor="0.97" vaporized=""/>
    <tripinfo id="up_77" depart="135.00" departLane="53o_0" departPos="5.10" departSpeed="0.00" departDelay="0.00" arrival="263.00" arrivalLane="54i_0" arrivalPos="10.00" arrivalSpeed="11.41" duration="128.00" routeLength="1015.10" waitingTime="25.00" waitingCount="1" stopTime="0.00" timeLoss="50.94" rerouteNo="0" devices="tripinfo_up_77" vType="passenger" speedFactor="0.98" vaporized=""/>
    <tripinfo id="up_90" depart="162.00" departLane="53o_0" departPos="5.10" departSpeed="0.00" departDelay="0.00" arrival="265.00" arrivalLane="54i_0" arrivalPos="10.00" arrivalSpeed="11.66" duration="103.00" routeLength="1015.10" waitingTime="0.00" waitingCount="0" stopTime="0.00" timeLoss="27.20" rerouteNo="0" devices="tripinfo_up_90" vType="passenger" speedFactor="1.02" vaporized=""/>
    <tripinfo id="up_94" depart="172.00" departLane="53o_0" departPos="5.10" departSpeed="0.00" departDelay="2.00" arrival="266.00" arrivalLane="54i_0" arrivalPos="10.00" arrivalSpeed="11.47" duration="94.00" routeLength="1015.10" waitingTime="0.00" waitingCount="0" stopTime="0.00" timeLoss="21.95" rerouteNo="0" devices="tripinfo_up_94" vType="passenger" speedFactor="1.09" vaporized=""/>
    <tripinfo id="down_92" depart="164.00" departLane="54o_0" departPos="5.10" departSpeed="0.00" departDelay="0.00" arrival="271.00" arrivalLane="53i_0" arrivalPos="10.00" arrivalSpeed="9.50" duration="107.00" routeLength="1015.10" waitingTime="0.00" waitingCount="0" stopTime="0.00" timeLoss="21.10" rerouteNo="0" devices="tripinfo_down_92" vType="passenger" speedFactor="0.83" vaporized=""/>
    <tripinfo id="right_35" depart="89.00" departLane="51o_0" departPos="5.10" departSpeed="0.00" departDelay="26.00" arrival="275.00" arrivalLane="52i_0" arrivalPos="10.00" arrivalSpeed="11.49" duration="186.00" routeLength="1015.10" waitingTime="69.00" waitingCount="2" stopTime="0.00" timeLoss="110.65" rerouteNo="0" devices="tripinfo_right_35" vType="passenger" speedFactor="1.02" vaporized=""/>
    <tripinfo id="left_64" depart="117.00" departLane="52o_0" departPos="5.10" departSpeed="0.00" departDelay="1.00" arrival="277.00" arrivalLane="51i_0" arrivalPos="10.00" arrivalSpeed="10.38" duration="160.00" routeLength="1015.10" waitingTime="44.00" waitingCount="2" stopTime="0.00" timeLoss="81.03" rerouteNo="0" devices="tripinfo_left_64" vType="passenger" speedFactor="0.94" vaporized=""/>
    <tripinfo id="right_36" depart="94.00" departLane="51o_0" departPos="5.10" departSpeed="0.00" departDelay="30.00" arrival="279.00" arrivalLane="52i_0" arrivalPos="10.00" arrivalSpeed="11.33" duration="185.00" routeLength="1015.10" waitingTime="66.00" waitingCount="3" stopTime="0.00" timeLoss="107.55" rerouteNo="0" devices="tripinfo_right_36" vType="passenger" speedFactor="0.97" vaporized=""/>
    <tripinfo id="right_38" depart="101.00" departLane="51o_0" departPos="5.10" departSpeed="0.00" departDelay="32.00" arrival="281.00" arrivalLane="52i_0" arrivalPos="10.00" arrivalSpeed="11.76" duration="180.00" routeLength="1015.10" waitingTime="62.00" waitingCount="3" stopTime="0.00" timeLoss="107.71" rerouteNo="0" devices="tripinfo_right_38" vType="passenger" speedFactor="1.10" vaporized=""/>
    <tripinfo id="right_42" depart="106.00" departLane="51o_0" departPos="5.10" departSpeed="0.00" departDelay="30.00" arrival="282.00" arrivalLane="52i_0" arrivalPos="10.00" arrivalSpeed="11.58" duration="176.00" routeLength="1015.10" waitingTime="57.00" waitingCount="2" stopTime="0.00" timeLoss="103.82" rerouteNo="0" devices="tripinfo_right_42" vType="passenger" speedFactor="1.09" vaporized=""/>
    <tripinfo id="left_65" depart="122.00" departLane="52o_0" departPos="5.10" departSpeed="0.00" departDelay="5.00" arrival="283.00" arrivalLane="51i_0" arrivalPos="10.00" arrivalSpeed="9.84" duration="161.00" routeLength="1015.10" waitingTime="39.00" waitingCount="2" stopTime="0.00" timeLoss="78.44" rerouteNo="0" devices="tripinfo_left_65" vType="passenger" speedFactor="0.88" vaporized=""/>
    <tripinfo id="right_44" depart="114.00" departLane="51o_0" departPos="5.10" departSpeed="0.00" departDelay="36.00" arrival="284.00" arrivalLane="52i_0" arrivalPos="10.00" arrivalSpeed="12.11" duration="170.00" routeLength="1015.10" waitingTime="48.00" waitingCount="2" stopTime="0.00" timeLoss="95.83" rerouteNo="0" devices="tripinfo_right_44" vType="passenger" speedFactor="1.04" vaporized=""/>
    <tripinfo id="left_66" depart="127.00" departLane="52o_0" departPos="5.10" departSpeed="0.00" departDelay="7.00" arrival="284.00" arrivalLane="51i_0" arrivalPos="10.00" arrivalSpeed="9.96" duration="157.00" routeLength="1015.10" waitingTime="34.00" waitingCount="2" stopTime="0.00" timeLoss="76.66" rerouteNo="0" devices="tripinfo_left_66" vType="passenger" speedFactor="0.91" vaporized=""/>
    <tripinfo id="right_46" depart="119.00" departLane="51o_0" departPos="5.10" departSpeed="0.00" departDelay="38.00" arrival="286.00" arrivalLane="52i_0" arrivalPos="10.00" arrivalSpeed="11.53" duration="167.00" routeLength="1015.10" waitingTime="47.00" waitingCount="2" stopTime="0.00" timeLoss="90.62" rerouteNo="0" devices="tripinfo_right_46" vType="passenger" speedFactor="1.00" vaporized=""/>
    <tripinfo id="left_67" depart="132.00" departLane="52o_0" departPos="5.10" departSpeed="0.00" departDelay="9.00" arrival="286.00" arrivalLane="51i_0" arrivalPos="10.00" arrivalSpeed="10.25" duration="154.00" routeLength="1015.10" waitingTime="29.00" waitingCount="2" stopTime="0.00" timeLoss="73.75" rerouteNo="0" devices="tripinfo_left_67" vType="passenger" speedFactor="0.91" vaporized=""/>
    <tripinfo id="left_68" depart="137.00" departLane="52o_0" departPos="5.10" departSpeed="0.00" departDelay="13.00" arrival="288.00" arrivalLane="51i_0" arrivalPos="10.00" arrivalSpeed="11.07" duration="151.00" routeLength="1015.10" waitingTime="26.00" waitingCount="2" stopTime="0.00" timeLoss="76.49" rerouteNo="0" devices="tripinfo_left_68" vType="passenger" speedFactor="1.04" vaporized=""/>
    <tripinfo id="left_69" depart="142.00" departLane="52o_0" departPos="5.10" departSpeed="0.00" departDelay="17.00" arrival="290.00" arrivalLane="51i_0" arrivalPos="10.00" arrivalSpeed="11.51" duration="148.00" routeLength="1015.10" waitingTime="23.00" waitingCount="2" stopTime="0.00" timeLoss="72.42" rerouteNo="0" devices="tripinfo_left_69" vType="passenger" speedFactor="1.02" vaporized=""/>
    <tripinfo id="left_72" depart="147.00" departLane="52o_0" departPos="5.10" departSpeed="0.00" departDelay="18.00" arrival="292.00" arrivalLane="51i_0" arrivalPos="10.00" arrivalSpeed="10.49" duration="145.00" routeLength="1015.10" waitingTime="20.00" waitingCount="2" stopTime="0.00" timeLoss="65.42" rerouteNo="0" devices="tripinfo_left_72" vType="passenger" speedFactor="0.94" vaporized=""/>
    <tripinfo id="left_75" depart="152.00" departLane="52o_0" departPos="5.10" departSpeed="0.00" departDelay="20.00" arrival="293.00" arrivalLane="51i_0" arrivalPos="10.00" arrivalSpeed="10.73" duration="141.00" routeLength="1015.10" waitingTime="15.00" waitingCount="2" stopTime="0.00" timeLoss="64.45" rerouteNo="0" devices="tripinfo_left_75" vType="passenger" speedFactor="0.98" vaporized=""/>
    <tripinfo id="right_48" depart="124.00" departLane="51o_0" departPos="5.10" departSpeed="0.00" departDelay="40.00" arrival="294.00" arrivalLane="52i_0" arrivalPos="10.00" arrivalSpeed="10.39" duration="170.00" routeLength="1015.10" waitingTime="42.00" waitingCount="2" stopTime="0.00" timeLoss="86.82" rerouteNo="0" devices="tripinfo_right_48" vType="passenger" speedFactor="0.88" vaporized=""/>