<?xml version="1.0" encoding="UTF-8"?>

<!-- generated on Sun Sep 22 02:46:53 2019 by Eclipse SUMO GUI Version 1.2.0
<configuration xmlns:xsi="http://www.w3.org/2001/XMLSchema-instance" xsi:noNamespaceSchemaLocation="http://sumo.dlr.de/xsd/sumoConfiguration.xsd">

    <input>
        <net-file value="simulation_files/sumocfgs/../networks/grid5.net.xml"/>
        <route-files value="simulation_files/sumocfgs/../routes/grid5.rou.xml"/>
    </input>

    <output>
        <tripinfo-output value="tripinfo_grid5.xml"/>
    </output>

    <time>
        <begin value="0"/>
        <step-length value="1"/>
    </time>

    <report>
        <verbose value="true"/>
        <no-step-log value="true"/>
    </report>

    <traci_server>
        <remote-port value="49221"/>
    </traci_server>

    <gui_only>
        <tracker-interval value="1"/>
    </gui_only>

</configuration>
-->

<tripinfos xmlns:xsi="http://www.w3.org/2001/XMLSchema-instance" xsi:noNamespaceSchemaLocation="http://sumo.dlr.de/xsd/tripinfo_file.xsd">
    <tripinfo id="15" depart="15.00" departLane="E0D0_0" departPos="5.10" departSpeed="0.00" departDelay="0.00" arrival="29.00" arrivalLane="E0D0_0" arrivalPos="139.60" arrivalSpeed="12.66" duration="14.00" routeLength="134.50" waitingTime="0.00" waitingCount="0" stopTime="0.00" timeLoss="3.31" rerouteNo="0" devices="tripinfo_15" vType="DEFAULT_VEHTYPE" speedFactor="0.93" vaporized=""/>
    <tripinfo id="6" depart="6.00" departLane="D1D2_0" departPos="5.10" departSpeed="0.00" departDelay="0.00" arrival="33.00" arrivalLane="D3D2_0" arrivalPos="85.60" arrivalSpeed="13.77" duration="27.00" routeLength="270.78" waitingTime="0.00" waitingCount="0" stopTime="0.00" timeLoss="7.32" rerouteNo="0" devices="tripinfo_6" vType="DEFAULT_VEHTYPE" speedFactor="1.05" vaporized=""/>
    <tripinfo id="12" depart="12.00" departLane="D4D3_0" departPos="5.10" departSpeed="0.00" departDelay="0.00" arrival="46.00" arrivalLane="C3C4_0" arrivalPos="85.60" arrivalSpeed="13.76" duration="34.00" routeLength="319.76" waitingTime="0.00" waitingCount="0" stopTime="0.00" timeLoss="10.53" rerouteNo="0" devices="tripinfo_12" vType="DEFAULT_VEHTYPE" speedFactor="1.05" vaporized=""/>
    <tripinfo id="19" depart="19.00" departLane="C2C1_0" departPos="5.10" departSpeed="0.00" departDelay="0.00" arrival="50.00" arrivalLane="B1A1_0" arrivalPos="135.60" arrivalSpeed="15.94" duration="31.00" routeLength="375.13" waitingTime="0.00" waitingCount="0" stopTime="0.00" timeLoss="6.47" rerouteNo="0" devices="tripinfo_19" vType="DEFAULT_VEHTYPE" speedFactor="1.16" vaporized=""/>
    <tripinfo id="4" depart="4.00" departLane="B2B3_0" departPos="5.10" departSpeed="0.00" departDelay="0.00" arrival="52.00" arrivalLane="C3D3_0" arrivalPos="135.60" arrivalSpeed="13.86" duration="48.00" routeLength="375.13" waitingTime="8.00" waitingCount="1" stopTime="0.00" timeLoss="20.74" rerouteNo="0" devices="tripinfo_4" vType="DEFAULT_VEHTYPE" speedFactor="1.03" vaporized=""/>
    <tripinfo id="25" depart="26.00" departLane="C2B2_0" departPos="5.10" departSpeed="0.00" departDelay="1.00" arrival="54.00" arrivalLane="B2A2_0" arrivalPos="135.60" arrivalSpeed="11.98" duration="28.00" routeLength="280.50" waitingTime="0.00" waitingCount="0" stopTime="0.00" timeLoss="4.10" rerouteNo="0" devices="tripinfo_25" vType="DEFAULT_VEHTYPE" speedFactor="0.87" vaporized=""/>
    <tripinfo id="14" depart="14.00" departLane="B2A2_0" departPos="5.10" departSpeed="0.00" departDelay="0.00" arrival="62.00" arrivalLane="B2C2_0" arrivalPos="135.60" arrivalSpeed="13.59" duration="48.00" routeLength="420.78" waitingTime="6.00" waitingCount="1" stopTime="0.00" timeLoss="16.37" rerouteNo="0" devices="tripinfo_14" vType="DEFAULT_VEHTYPE" speedFactor="0.99" vaporized=""/>
    <tripinfo id="45" depart="45.00" departLane="D4D3_0" departPos="5.10" departSpeed="0.00" departDelay="0.00" arrival="73.00" arrivalLane="D4D3_0" arrivalPos="85.60" arrivalSpeed="6.39" duration="28.00" routeLength="80.50" waitingTime="14.00" waitingCount="1" stopTime="0.00" timeLoss="22.51" rerouteNo="0" devices="tripinfo_45" vType="DEFAULT_VEHTYPE" speedFactor="1.09" vaporized=""/>
    <tripinfo id="11" depart="11.00" departLane="B2B1_0" departPos="5.10" departSpeed="0.00" departDelay="0.00" arrival="76.00" arrivalLane="D3D4_0" arrivalPos="85.60" arrivalSpeed="13.20" duration="65.00" routeLength="665.20" waitingTime="0.00" waitingCount="0" stopTime="0.00" timeLoss="16.38" rerouteNo="0" devices="tripinfo_11" vType="DEFAULT_VEHTYPE" speedFactor="1.03" vaporized=""/>
    <tripinfo id="0" depart="0.00" departLane="D4C4_0" departPos="5.10" departSpeed="0.00" departDelay="0.00" arrival="77.00" arrivalLane="E3E2_0" arrivalPos="85.60" arrivalSpeed="13.98" duration="77.00" routeLength="616.96" waitingTime="16.00" waitingCount="1" stopTime="0.00" timeLoss="33.74" rerouteNo="0" devices="tripinfo_0" vType="DEFAULT_VEHTYPE" speedFactor="1.06" vaporized=""/>
    <tripinfo id="8" depart="8.00" departLane="D0E0_0" departPos="5.10" departSpeed="0.00" departDelay="0.00" arrival="94.00" arrivalLane="E3E4_0" arrivalPos="89.60" arrivalSpeed="11.76" duration="86.00" routeLength="535.84" waitingTime="32.00" waitingCount="1" stopTime="0.00" timeLoss="43.15" rerouteNo="0" devices="tripinfo_8" vType="DEFAULT_VEHTYPE" speedFactor="0.94" vaporized=""/>
    <tripinfo id="20" depart="20.00" departLane="C4B4_0" departPos="5.10" departSpeed="0.00" departDelay="0.00" arrival="100.00" arrivalLane="B2B3_0" arrivalPos="85.60" arrivalSpeed="13.01" duration="80.00" routeLength="420.57" waitingTime="33.00" waitingCount="2" stopTime="0.00" timeLoss="48.39" rerouteNo="0" devices="tripinfo_20" vType="DEFAULT_VEHTYPE" speedFactor="1.02" vaporized=""/>
    <tripinfo id="48" depart="48.00" departLane="C1C0_0" departPos="5.10" departSpeed="0.00" departDelay="0.00" arrival="102.00" arrivalLane="C3D3_0" arrivalPos="135.60" arrivalSpeed="11.53" duration="54.00" routeLength="515.41" waitingTime="0.00" waitingCount="0" stopTime="0.00" timeLoss="9.16" rerouteNo="0" devices="tripinfo_48" vType="DEFAULT_VEHTYPE" speedFactor="0.88" vaporized=""/>
    <tripinfo id="2" depart="2.00" departLane="B2C2_0" departPos="5.10" departSpeed="0.00" departDelay="0.00" arrival="105.00" arrivalLane="B3B4_0" arrivalPos="85.60" arrivalSpeed="6.63" duration="103.00" routeLength="465.41" waitingTime="45.00" waitingCount="3" stopTime="0.00" timeLoss="67.92" rerouteNo="0" devices="tripinfo_2" vType="DEFAULT_VEHTYPE" speedFactor="1.01" vaporized=""/>
    <tripinfo id="54" depart="54.00" departLane="C4D4_0" departPos="5.10" departSpeed="0.00" departDelay="0.00" arrival="105.00" arrivalLane="D2C2_0" arrivalPos="135.60" arrivalSpeed="5.67" duration="51.00" routeLength="469.76" waitingTime="0.00" waitingCount="0" stopTime="0.00" timeLoss="15.70" rerouteNo="0" devices="tripinfo_54" vType="DEFAULT_VEHTYPE" speedFactor="1.00" vaporized=""/>
    <tripinfo id="68" depart="68.00" departLane="B1B2_0" departPos="5.10" departSpeed="0.00" departDelay="0.00" arrival="105.00" arrivalLane="B1C1_0" arrivalPos="135.60" arrivalSpeed="13.93" duration="37.00" routeLength="320.57" waitingTime="0.00" waitingCount="0" stopTime="0.00" timeLoss="12.80" rerouteNo="0" devices="tripinfo_68" vType="DEFAULT_VEHTYPE" speedFactor="1.04" vaporized=""/>
    <tripinfo id="35" depart="35.00" departLane="B0A0_0" departPos="5.10" departSpeed="0.00" departDelay="0.00" arrival="106.00" arrivalLane="A3B3_0" arrivalPos="135.60" arrivalSpeed="5.55" duration="71.00" routeLength="571.31" waitingTime="9.00" waitingCount="2" stopTime="0.00" timeLoss="29.39" rerouteNo="0" devices="tripinfo_35" vType="DEFAULT_VEHTYPE" speedFactor="1.02" vaporized=""/>
    <tripinfo id="86" depart="86.00" departLane="E2E1_0" departPos="5.10" departSpeed="0.00" departDelay="0.00" arrival="106.00" arrivalLane="E1E2_0" arrivalPos="85.60" arrivalSpeed="13.49" duration="20.00" routeLength="170.78" waitingTime="0.00" waitingCount="0" stopTime="0.00" timeLoss="6.21" rerouteNo="0" devices="tripinfo_86" vType="DEFAULT_VEHTYPE" speedFactor="1.00" vaporized=""/>
    <tripinfo id="72" depart="72.00" departLane="D0E0_0" departPos="5.10" departSpeed="0.00" departDelay="0.00" arrival="111.00" arrivalLane="E1D1_0" arrivalPos="135.60" arrivalSpeed="12.20" duration="39.00" routeLength="381.63" waitingTime="0.00" waitingCount="0" stopTime="0.00" timeLoss="7.62" rerouteNo="0" devices="tripinfo_72" vType="DEFAULT_VEHTYPE" speedFactor="0.94" vaporized=""/>
    <tripinfo id="3" depart="4.00" departLane="C3C4_0" departPos="5.10" departSpeed="0.00" departDelay="1.00" arrival="112.00" arrivalLane="C2D2_0" arrivalPos="135.60" arrivalSpeed="11.60" duration="108.00" routeLength="420.57" waitingTime="47.00" waitingCount="4" stopTime="0.00" timeLoss="77.88" rerouteNo="0" devices="tripinfo_3" vType="DEFAULT_VEHTYPE" speedFactor="1.08" vaporized=""/>
    <tripinfo id="44" depart="44.00" departLane="B3B4_0" departPos="5.10" departSpeed="0.00" departDelay="0.00" arrival="112.00" arrivalLane="D3C3_0" arrivalPos="135.60" arrivalSpeed="10.49" duration="68.00" routeLength="614.39" waitingTime="3.00" waitingCount="1" stopTime="0.00" timeLoss="23.27" rerouteNo="0" devices="tripinfo_44" vType="DEFAULT_VEHTYPE" speedFactor="1.04" vaporized=""/>
    <tripinfo id="33" depart="33.00" departLane="D4C4_0" departPos="5.10" departSpeed="0.00" departDelay="0.00" arrival="114.00" arrivalLane="C2D2_0" arrivalPos="135.60" arrivalSpeed="11.27" duration="81.00" routeLength="480.08" waitingTime="22.00" waitingCount="2" stopTime="0.00" timeLoss="49.95" rerouteNo="0" devices="tripinfo_33" vType="DEFAULT_VEHTYPE" speedFactor="1.17" vaporized=""/>
    <tripinfo id="56" depart="56.00" departLane="D3C3_0" departPos="5.10" departSpeed="0.00" departDelay="0.00" arrival="116.00" arrivalLane="C3B3_0" arrivalPos="135.60" arrivalSpeed="11.19" duration="60.00" routeLength="280.50" waitingTime="29.00" waitingCount="1" stopTime="0.00" timeLoss="37.48" rerouteNo="0" devices="tripinfo_56" vType="DEFAULT_VEHTYPE" speedFactor="0.90" vaporized=""/>
    <tripinfo id="46" depart="47.00" departLane="D1C1_0" departPos="5.10" departSpeed="0.00" departDelay="1.00" arrival="118.00" arrivalLane="D2E2_0" arrivalPos="135.60" arrivalSpeed="13.47" duration="71.00" routeLength="519.76" waitingTime="17.00" waitingCount="1" stopTime="0.00" timeLoss="31.85" rerouteNo="0" devices="tripinfo_46" vType="DEFAULT_VEHTYPE" speedFactor="1.00" vaporized=""/>
    <tripinfo id="55" depart="55.00" departLane="A4B4_0" departPos="5.10" departSpeed="0.00" departDelay="0.00" arrival="119.00" arrivalLane="A2B2_0" arrivalPos="135.60" arrivalSpeed="13.03" duration="64.00" routeLength="614.04" waitingTime="1.00" waitingCount="1" stopTime="0.00" timeLoss="17.10" rerouteNo="0" devices="tripinfo_55" vType="DEFAULT_VEHTYPE" speedFactor="1.00" vaporized=""/>
    <tripinfo id="42" depart="42.00" departLane="C2C1_0" departPos="5.10" departSpeed="0.00" departDelay="0.00" arrival="124.00" arrivalLane="E1E2_0" arrivalPos="85.60" arrivalSpeed="14.53" duration="82.00" routeLength="480.08" waitingTime="26.00" waitingCount="3" stopTime="0.00" timeLoss="48.82" rerouteNo="0" devices="tripinfo_42" vType="DEFAULT_VEHTYPE" speedFactor="1.09" vaporized=""/>
    <tripinfo id="43" depart="47.00" departLane="B2B3_0" departPos="5.10" departSpeed="0.00" departDelay="4.00" arrival="125.00" arrivalLane="C3B3_0" arrivalPos="135.60" arrivalSpeed="14.01" duration="78.00" routeLength="365.41" waitingTime="33.00" waitingCount="3" stopTime="0.00" timeLoss="50.39" rerouteNo="0" devices="tripinfo_43" vType="DEFAULT_VEHTYPE" speedFactor="1.04" vaporized=""/>
    <tripinfo id="10" depart="10.00" departLane="E4D4_0" departPos="5.10" departSpeed="0.00" departDelay="0.00" arrival="127.00" arrivalLane="B3B4_0" arrivalPos="85.60" arrivalSpeed="14.61" duration="117.00" routeLength="623.55" waitingTime="45.00" waitingCount="3" stopTime="0.00" timeLoss="74.09" rerouteNo="0" devices="tripinfo_10" vType="DEFAULT_VEHTYPE" speedFactor="1.09" vaporized=""/>
    <tripinfo id="29" depart="29.00" departLane="D4D3_0" departPos="5.10" departSpeed="0.00" departDelay="0.00" arrival="131.00" arrivalLane="C3C2_0" arrivalPos="85.60" arrivalSpeed="5.68" duration="102.00" routeLength="324.92" waitingTime="56.00" waitingCount="3" stopTime="0.00" timeLoss="75.40" rerouteNo="0" devices="tripinfo_29" vType="DEFAULT_VEHTYPE" speedFactor="0.93" vaporized=""/>
    <tripinfo id="24" depart="24.00" departLane="E2D2_0" departPos="5.10" departSpeed="0.00" departDelay="0.00" arrival="137.00" arrivalLane="A2B2_0" arrivalPos="135.60" arrivalSpeed="10.76" duration="113.00" routeLength="720.78" waitingTime="33.00" waitingCount="1" stopTime="0.00" timeLoss="48.62" rerouteNo="0" devices="tripinfo_24" vType="DEFAULT_VEHTYPE" speedFactor="0.83" vaporized=""/>
    <tripinfo id="16" depart="16.00" departLane="C3C2_0" departPos="5.10" departSpeed="0.00" departDelay="0.00" arrival="141.00" arrivalLane="A4A3_0" arrivalPos="89.60" arrivalSpeed="7.50" duration="125.00" routeLength="670.89" waitingTime="33.00" waitingCount="3" stopTime="0.00" timeLoss="66.55" rerouteNo="0" devices="tripinfo_16" vType="DEFAULT_VEHTYPE" speedFactor="0.88" vaporized=""/>
    <tripinfo id="30" depart="35.00" departLane="B2C2_0" departPos="5.10" departSpeed="0.00" departDelay="5.00" arrival="141.00" arrivalLane="D4E4_0" arrivalPos="139.60" arrivalSpeed="15.30" duration="106.00" routeLength="628.92" waitingTime="40.00" waitingCount="3" stopTime="0.00" timeLoss="65.60" rerouteNo="0" devices="tripinfo_30" vType="DEFAULT_VEHTYPE" speedFactor="1.18" vaporized=""/>
    <tripinfo id="40" depart="40.00" departLane="C0B0_0" departPos="5.10" departSpeed="0.00" departDelay="0.00" arrival="141.00" arrivalLane="C1C2_0" arrivalPos="85.60" arrivalSpeed="8.12" duration="101.00" routeLength="469.55" waitingTime="43.00" waitingCount="3" stopTime="0.00" timeLoss="66.37" rerouteNo="0" devices="tripinfo_40" vType="DEFAULT_VEHTYPE" speedFactor="1.03" vaporized=""/>
    <tripinfo id="60" depart="60.00" departLane="E2E3_0" departPos="5.10" departSpeed="0.00" departDelay="0.00" arrival="141.00" arrivalLane="D0E0_0" arrivalPos="139.60" arrivalSpeed="14.59" duration="81.00" routeLength="661.24" waitingTime="18.00" waitingCount="1" stopTime="0.00" timeLoss="34.95" rerouteNo="0" devices="tripinfo_60" vType="DEFAULT_VEHTYPE" speedFactor="1.08" vaporized=""/>
    <tripinfo id="18" depart="18.00" departLane="D0D1_0" departPos="5.10" departSpeed="0.00" departDelay="0.00" arrival="142.00" arrivalLane="C4B4_0" arrivalPos="135.60" arrivalSpeed="11.83" duration="124.00" routeLength="680.29" waitingTime="50.00" waitingCount="3" stopTime="0.00" timeLoss="70.71" rerouteNo="0" devices="tripinfo_18" vType="DEFAULT_VEHTYPE" speedFactor="0.94" vaporized=""/>
    <tripinfo id="64" depart="65.00" departLane="A0B0_0" departPos="5.10" departSpeed="0.00" departDelay="1.00" arrival="142.00" arrivalLane="B2C2_0" arrivalPos="135.60" arrivalSpeed="12.29" duration="77.00" routeLength="478.92" waitingTime="26.00" waitingCount="1" stopTime="0.00" timeLoss="38.22" rerouteNo="0" devices="tripinfo_64" vType="DEFAULT_VEHTYPE" speedFactor="0.94" vaporized=""/>
    <tripinfo id="26" depart="26.00" departLane="C3D3_0" departPos="5.10" departSpeed="0.00" departDelay="0.00" arrival="143.00" arrivalLane="C0D0_0" arrivalPos="135.60" arrivalSpeed="12.63" duration="117.00" routeLength="710.04" waitingTime="36.00" waitingCount="3" stopTime="0.00" timeLoss="57.92" rerouteNo="0" devices="tripinfo_26" vType="DEFAULT_VEHTYPE" speedFactor="0.92" vaporized=""/>
    <tripinfo id="1" depart="1.00" departLane="C3C4_0" departPos="5.10" departSpeed="0.00" departDelay="0.00" arrival="144.00" arrivalLane="B0B1_0" arrivalPos="85.60" arrivalSpeed="12.72" duration="143.00" routeLength="710.04" waitingTime="52.00" waitingCount="4" stopTime="0.00" timeLoss="85.67" rerouteNo="0" devices="tripinfo_1" vType="DEFAULT_VEHTYPE" speedFactor="0.94" vaporized=""/>
    <tripinfo id="36" depart="36.00" departLane="C1D1_0" departPos="5.10" departSpeed="0.00" departDelay="0.00" arrival="144.00" arrivalLane="C2C1_0" arrivalPos="85.60" arrivalSpeed="12.38" duration="108.00" routeLength="455.69" waitingTime="45.00" waitingCount="3" stopTime="0.00" timeLoss="71.57" rerouteNo="0" devices="tripinfo_36" vType="DEFAULT_VEHTYPE" speedFactor="0.97" vaporized=""/>
    <tripinfo id="17" depart="17.00" departLane="A2B2_0" departPos="5.10" departSpeed="0.00" departDelay="0.00" arrival="146.00" arrivalLane="E3E2_0" arrivalPos="85.60" arrivalSpeed="12.58" duration="129.00" routeLength="770.57" waitingTime="39.00" waitingCount="3" stopTime="0.00" timeLoss="67.83" rerouteNo="0" devices="tripinfo_17" vType="DEFAULT_VEHTYPE" speedFactor="0.94" vaporized=""/>
    <tripinfo id="7" depart="7.00" departLane="B3C3_0" departPos="5.10" departSpeed="0.00" departDelay="0.00" arrival="147.00" arrivalLane="B0C0_0" arrivalPos="135.60" arrivalSpeed="11.57" duration="140.00" routeLength="710.04" waitingTime="54.00" waitingCount="5" stopTime="0.00" timeLoss="78.90" rerouteNo="0" devices="tripinfo_7" vType="DEFAULT_VEHTYPE" speedFactor="0.89" vaporized=""/>
    <tripinfo id="121" depart="121.00" departLane="D2D3_0" departPos="5.10" departSpeed="0.00" departDelay="0.00" arrival="147.00" arrivalLane="D3E3_0" arrivalPos="135.60" arrivalSpeed="14.46" duration="26.00" routeLength="225.13" waitingTime="0.00" waitingCount="0" stopTime="0.00" timeLoss="10.25" rerouteNo="0" devices="tripinfo_121" vType="DEFAULT_VEHTYPE" speedFactor="1.10" vaporized=""/>
    <tripinfo id="58" depart="58.00" departLane="C2C3_0" departPos="5.10" departSpeed="0.00" departDelay="0.00" arrival="148.00" arrivalLane="B0B1_0" arrivalPos="85.60" arrivalSpeed="14.12" duration="90.00" routeLength="610.04" waitingTime="8.00" waitingCount="3" stopTime="0.00" timeLoss="44.30" rerouteNo="0" devices="tripinfo_58" vType="DEFAULT_VEHTYPE" speedFactor="1.02" vaporized=""/>
    <tripinfo id="116" depart="116.00" departLane="D4D3_0" departPos="5.10" departSpeed="0.00" departDelay="0.00" arrival="148.00" arrivalLane="D2D3_0" arrivalPos="85.60" arrivalSpeed="16.00" duration="32.00" routeLength="270.78" waitingTime="0.00" waitingCount="0" stopTime="0.00" timeLoss="14.01" rerouteNo="0" devices="tripinfo_116" vType="DEFAULT_VEHTYPE" speedFactor="1.18" vaporized=""/>
    <tripinfo id="9" depart="9.00" departLane="D4C4_0" departPos="5.10" departSpeed="0.00" departDelay="0.00" arrival="150.00" arrivalLane="A3B3_0" arrivalPos="135.60" arrivalSpeed="11.66" duration="141.00" routeLength="681.63" waitingTime="60.00" waitingCount="4" stopTime="0.00" timeLoss="80.94" rerouteNo="0" devices="tripinfo_9" vType="DEFAULT_VEHTYPE" speedFactor="0.86" vaporized=""/>
    <tripinfo id="79" depart="79.00" departLane="B2B3_0" departPos="5.10" departSpeed="0.00" departDelay="0.00" arrival="152.00" arrivalLane="D4E4_0" arrivalPos="139.60" arrivalSpeed="13.90" duration="73.00" routeLength="629.13" waitingTime="12.00" waitingCount="2" stopTime="0.00" timeLoss="29.59" rerouteNo="0" devices="tripinfo_79" vType="DEFAULT_VEHTYPE" speedFactor="1.09" vaporized=""/>
    <tripinfo id="52" depart="52.00" departLane="A1A0_0" departPos="5.10" departSpeed="0.00" departDelay="0.00" arrival="153.00" arrivalLane="C2C3_0" arrivalPos="85.60" arrivalSpeed="6.31" duration="101.00" routeLength="681.63" waitingTime="26.00" waitingCount="2" stopTime="0.00" timeLoss="51.30" rerouteNo="0" devices="tripinfo_52" vType="DEFAULT_VEHTYPE" speedFactor="1.02" vaporized=""/>
    <tripinfo id="13" depart="13.00" departLane="B2C2_0" departPos="5.10" departSpeed="0.00" departDelay="0.00" arrival="155.00" arrivalLane="A4B4_0" arrivalPos="139.60" arrivalSpeed="14.43" duration="142.00" routeLength="761.59" waitingTime="57.00" waitingCount="3" stopTime="0.00" timeLoss="91.29" rerouteNo="0" devices="tripinfo_13" vType="DEFAULT_VEHTYPE" speedFactor="1.12" vaporized=""/>
    <tripinfo id="120" depart="122.00" departLane="A4A3_0" departPos="5.10" departSpeed="0.00" departDelay="2.00" arrival="155.00" arrivalLane="A3A2_0" arrivalPos="85.60" arrivalSpeed="6.54" duration="33.00" routeLength="184.50" waitingTime="0.00" waitingCount="0" stopTime="0.00" timeLoss="18.77" rerouteNo="0" devices="tripinfo_120" vType="DEFAULT_VEHTYPE" speedFactor="0.94" vaporized=""/>
    <tripinfo id="87" depart="87.00" departLane="C3B3_0" departPos="5.10" departSpeed="0.00" departDelay="0.00" arrival="156.00" arrivalLane="B1A1_0" arrivalPos="135.60" arrivalSpeed="13.62" duration="69.00" routeLength="474.92" waitingTime="10.00" waitingCount="1" stopTime="0.00" timeLoss="34.67" rerouteNo="0" devices="tripinfo_87" vType="DEFAULT_VEHTYPE" speedFactor="1.04" vaporized=""/>
    <tripinfo id="83" depart="83.00" departLane="C3C4_0" departPos="5.10" departSpeed="0.00" departDelay="0.00" arrival="158.00" arrivalLane="B2B1_0" arrivalPos="85.60" arrivalSpeed="8.66" duration="75.00" routeLength="530.08" waitingTime="15.00" waitingCount="2" stopTime="0.00" timeLoss="33.71" rerouteNo="0" devices="tripinfo_83" vType="DEFAULT_VEHTYPE" speedFactor="0.97" vaporized=""/>
    <tripinfo id="49" depart="49.00" departLane="E1E0_0" departPos="5.10" departSpeed="0.00" departDelay="0.00" arrival="161.00" arrivalLane="B2B1_0" arrivalPos="85.60" arrivalSpeed="11.29" duration="112.00" routeLength="811.59" waitingTime="16.00" waitingCount="2" stopTime="0.00" timeLoss="41.32" rerouteNo="0" devices="tripinfo_49" vType="DEFAULT_VEHTYPE" speedFactor="0.85" vaporized=""/>
    <tripinfo id="51" depart="51.00" departLane="D2E2_0" departPos="5.10" departSpeed="0.00" departDelay="0.00" arrival="161.00" arrivalLane="D0C0_0" arrivalPos="135.60" arrivalSpeed="16.22" duration="110.00" routeLength="621.31" waitingTime="49.00" waitingCount="2" stopTime="0.00" timeLoss="70.27" rerouteNo="0" devices="tripinfo_51" vType="DEFAULT_VEHTYPE" speedFactor="1.17" vaporized=""/>
    <tripinfo id="21" depart="21.00" departLane="A4A3_0" departPos="5.10" departSpeed="0.00" departDelay="0.00" arrival="164.00" arrivalLane="D0E0_0" arrivalPos="139.60" arrivalSpeed="12.90" duration="143.00" routeLength="989.84" waitingTime="53.00" waitingCount="2" stopTime="0.00" timeLoss="71.73" rerouteNo="0" devices="tripinfo_21" vType="DEFAULT_VEHTYPE" speedFactor="1.01" vaporized=""/>
    <tripinfo id="31" depart="31.00" departLane="E2E1_0" departPos="5.10" departSpeed="0.00" departDelay="0.00" arrival="166.00" arrivalLane="C3C4_0" arrivalPos="85.60" arrivalSpeed="5.00" duration="135.00" routeLength="669.76" waitingTime="68.00" waitingCount="3" stopTime="0.00" timeLoss="92.30" rerouteNo="0" devices="tripinfo_31" vType="DEFAULT_VEHTYPE" speedFactor="1.15" vaporized=""/>
    <tripinfo id="37" depart="37.00" departLane="D1D0_0" departPos="5.10" departSpeed="0.00" departDelay="0.00" arrival="166.00" arrivalLane="A2B2_0" arrivalPos="135.60" arrivalSpeed="6.03" duration="129.00" routeLength="865.94" waitingTime="43.00" waitingCount="3" stopTime="0.00" timeLoss="74.97" rerouteNo="0" devices="tripinfo_37" vType="DEFAULT_VEHTYPE" speedFactor="1.18" vaporized=""/>
    <tripinfo id="102" depart="104.00" departLane="B3B4_0" departPos="5.10" departSpeed="0.00" departDelay="2.00" arrival="166.00" arrivalLane="B3A3_0" arrivalPos="135.60" arrivalSpeed="5.11" duration="62.00" routeLength="315.41" waitingTime="16.00" waitingCount="2" stopTime="0.00" timeLoss="36.68" rerouteNo="0" devices="tripinfo_102" vType="DEFAULT_VEHTYPE" speedFactor="0.97" vaporized=""/>
    <tripinfo id="101" depart="101.00" departLane="B3B4_0" departPos="5.10" departSpeed="0.00" departDelay="0.00" arrival="167.00" arrivalLane="B1A1_0" arrivalPos="135.60" arrivalSpeed="12.37" duration="66.00" routeLength="515.41" waitingTime="3.00" waitingCount="1" stopTime="0.00" timeLoss="24.18" rerouteNo="0" devices="tripinfo_101" vType="DEFAULT_VEHTYPE" speedFactor="0.96" vaporized=""/>
    <tripinfo id="108" depart="108.00" departLane="B2B3_0" departPos="5.10" departSpeed="0.00" departDelay="0.00" arrival="167.00" arrivalLane="B3C3_0" arrivalPos="135.60" arrivalSpeed="6.28" duration="59.00" routeLength="225.13" waitingTime="27.00" waitingCount="2" stopTime="0.00" timeLoss="42.44" rerouteNo="0" devices="tripinfo_108" vType="DEFAULT_VEHTYPE" speedFactor="1.06" vaporized=""/>
    <tripinfo id="41" depart="41.00" departLane="C1D1_0" departPos="5.10" departSpeed="0.00" departDelay="0.00" arrival="168.00" arrivalLane="C3D3_0" arrivalPos="135.60" arrivalSpeed="7.29" duration="127.00" routeLength="610.04" waitingTime="43.00" waitingCount="3" stopTime="0.00" timeLoss="78.42" rerouteNo="0" devices="tripinfo_41" vType="DEFAULT_VEHTYPE" speedFactor="0.96" vaporized=""/>
    <tripinfo id="95" depart="95.00" departLane="B1B2_0" departPos="5.10" departSpeed="0.00" departDelay="0.00" arrival="168.00" arrivalLane="B1A1_0" arrivalPos="135.60" arrivalSpeed="13.62" duration="73.00" routeLength="315.41" waitingTime="31.00" waitingCount="2" stopTime="0.00" timeLoss="49.85" rerouteNo="0" devices="tripinfo_95" vType="DEFAULT_VEHTYPE" speedFactor="1.06" vaporized=""/>
    <tripinfo id="63" depart="64.00" departLane="C1C2_0" departPos="5.10" departSpeed="0.00" departDelay="1.00" arrival="169.00" arrivalLane="E1D1_0" arrivalPos="135.60" arrivalSpeed="8.40" duration="105.00" routeLength="614.39" waitingTime="28.00" waitingCount="2" stopTime="0.00" timeLoss="58.20" rerouteNo="0" devices="tripinfo_63" vType="DEFAULT_VEHTYPE" speedFactor="0.99" vaporized=""/>
    <tripinfo id="34" depart="34.00" departLane="D2E2_0" departPos="5.10" departSpeed="0.00" departDelay="0.00" arrival="170.00" arrivalLane="B3B4_0" arrivalPos="85.60" arrivalSpeed="8.19" duration="136.00" routeLength="765.41" waitingTime="50.00" waitingCount="3" stopTime="0.00" timeLoss="78.92" rerouteNo="0" devices="tripinfo_34" vType="DEFAULT_VEHTYPE" speedFactor="0.99" vaporized=""/>
    <tripinfo id="66" depart="68.00" departLane="A0B0_0" departPos="5.10" departSpeed="0.00" departDelay="2.00" arrival="171.00" arrivalLane="C2D2_0" arrivalPos="135.60" arrivalSpeed="8.26" duration="103.00" routeLength="628.92" waitingTime="25.00" waitingCount="2" stopTime="0.00" timeLoss="51.81" rerouteNo="0" devices="tripinfo_66" vType="DEFAULT_VEHTYPE" speedFactor="0.91" vaporized=""/>
    <tripinfo id="5" depart="5.00" departLane="E3E2_0" departPos="5.10" departSpeed="0.00" departDelay="0.00" arrival="175.00" arrivalLane="B4B3_0" arrivalPos="85.60" arrivalSpeed="10.45" duration="170.00" routeLength="810.04" waitingTime="74.00" waitingCount="4" stopTime="0.00" timeLoss="96.83" rerouteNo="0" devices="tripinfo_5" vType="DEFAULT_VEHTYPE" speedFactor="0.83" vaporized=""/>
    <tripinfo id="73" depart="75.00" departLane="B3B4_0" departPos="5.10" departSpeed="0.00" departDelay="2.00" arrival="175.00" arrivalLane="C2D2_0" arrivalPos="135.60" arrivalSpeed="10.52" duration="100.00" routeLength="569.55" waitingTime="29.00" waitingCount="3" stopTime="0.00" timeLoss="59.52" rerouteNo="0" devices="tripinfo_73" vType="DEFAULT_VEHTYPE" speedFactor="1.06" vaporized=""/>
    <tripinfo id="131" depart="133.00" departLane="E3D3_0" departPos="5.10" departSpeed="0.00" departDelay="2.00" arrival="175.00" arrivalLane="D3D4_0" arrivalPos="85.60" arrivalSpeed="13.97" duration="42.00" routeLength="225.13" waitingTime="15.00" waitingCount="1" stopTime="0.00" timeLoss="25.64" rerouteNo="0" devices="tripinfo_131" vType="DEFAULT_VEHTYPE" speedFactor="1.07" vaporized=""/>
    <tripinfo id="75" depart="75.00" departLane="A3A2_0" departPos="5.10" departSpeed="0.00" departDelay="0.00" arrival="176.00" arrivalLane="B1C1_0" arrivalPos="135.60" arrivalSpeed="5.28" duration="101.00" routeLength="480.29" waitingTime="40.00" waitingCount="3" stopTime="0.00" timeLoss="64.92" rerouteNo="0" devices="tripinfo_75" vType="DEFAULT_VEHTYPE" speedFactor="0.98" vaporized=""/>
    <tripinfo id="89" depart="89.00" departLane="B3A3_0" departPos="5.10" departSpeed="0.00" departDelay="0.00" arrival="177.00" arrivalLane="C3D3_0" arrivalPos="135.60" arrivalSpeed="13.62" duration="88.00" routeLength="570.78" waitingTime="33.00" waitingCount="1" stopTime="0.00" timeLoss="46.58" rerouteNo="0" devices="tripinfo_89" vType="DEFAULT_VEHTYPE" speedFactor="1.02" vaporized=""/>
    <tripinfo id="65" depart="65.00" departLane="D0C0_0" departPos="5.10" departSpeed="0.00" departDelay="0.00" arrival="178.00" arrivalLane="B2A2_0" arrivalPos="135.60" arrivalSpeed="11.68" duration="113.00" routeLength="624.92" waitingTime="44.00" waitingCount="2" stopTime="0.00" timeLoss="60.26" rerouteNo="0" devices="tripinfo_65" vType="DEFAULT_VEHTYPE" speedFactor="0.88" vaporized=""/>
    <tripinfo id="110" depart="110.00" departLane="A4B4_0" departPos="5.10" departSpeed="0.00" departDelay="0.00" arrival="179.00" arrivalLane="C3B3_0" arrivalPos="135.60" arrivalSpeed="7.04" duration="69.00" routeLength="523.76" waitingTime="8.00" waitingCount="2" stopTime="0.00" timeLoss="26.35" rerouteNo="0" devices="tripinfo_110" vType="DEFAULT_VEHTYPE" speedFactor="0.93" vaporized=""/>
    <tripinfo id="70" depart="70.00" departLane="B4C4_0" departPos="5.10" departSpeed="0.00" departDelay="0.00" arrival="184.00" arrivalLane="D2E2_0" arrivalPos="135.60" arrivalSpeed="14.05" duration="114.00" routeLength="624.92" waitingTime="45.00" waitingCount="3" stopTime="0.00" timeLoss="68.63" rerouteNo="0" devices="tripinfo_70" vType="DEFAULT_VEHTYPE" speedFactor="1.02" vaporized=""/>
    <tripinfo id="27" depart="27.00" departLane="B4B3_0" departPos="5.10" departSpeed="0.00" departDelay="0.00" arrival="187.00" arrivalLane="E3E4_0" arrivalPos="89.60" arrivalSpeed="12.24" duration="160.00" routeLength="634.08" waitingTime="80.00" waitingCount="5" stopTime="0.00" timeLoss="110.50" rerouteNo="0" devices="tripinfo_27" vType="DEFAULT_VEHTYPE" speedFactor="0.95" vaporized=""/>