<?xml version="1.0" encoding="UTF-8"?>

<!-- generated on Wed Sep 18 02:41:16 2019 by Eclipse SUMO GUI Version 1.2.0
<configuration xmlns:xsi="http://www.w3.org/2001/XMLSchema-instance" xsi:noNamespaceSchemaLocation="http://sumo.dlr.de/xsd/sumoConfiguration.xsd">

    <input>
        <net-file value="data/cross.net.xml"/>
        <route-files value="data/cross.rou.xml"/>
        <additional-files value="data/cross.tlsp.xml"/>
    </input>

    <output>
        <tripinfo-output value="tripinfo_isolated.xml"/>
    </output>

    <time>
        <begin value="0"/>
        <step-length value="1"/>
    </time>

    <report>
        <verbose value="true"/>
        <no-step-log value="true"/>
    </report>

    <traci_server>
        <remote-port value="38585"/>
    </traci_server>

    <gui_only>
        <tracker-interval value="1"/>
    </gui_only>

</configuration>
-->

<tripinfos xmlns:xsi="http://www.w3.org/2001/XMLSchema-instance" xsi:noNamespaceSchemaLocation="http://sumo.dlr.de/xsd/tripinfo_file.xsd">
    <tripinfo id="left_0" depart="0.00" departLane="52o_0" departPos="5.10" departSpeed="0.00" departDelay="0.00" arrival="88.00" arrivalLane="51i_0" arrivalPos="10.00" arrivalSpeed="12.06" duration="88.00" routeLength="1015.10" waitingTime="0.00" waitingCount="0" stopTime="0.00" timeLoss="14.61" rerouteNo="0" devices="tripinfo_left_0" vType="typeWE" speedFactor="1.06" vaporized=""/>
    <tripinfo id="right_2" depart="3.00" departLane="51o_0" departPos="5.10" departSpeed="0.00" departDelay="0.00" arrival="94.00" arrivalLane="52i_0" arrivalPos="10.00" arrivalSpeed="11.37" duration="91.00" routeLength="1015.10" waitingTime="0.00" waitingCount="0" stopTime="0.00" timeLoss="14.92" rerouteNo="0" devices="tripinfo_right_2" vType="typeWE" speedFactor="1.01" vaporized=""/>
    <tripinfo id="right_3" depart="8.00" departLane="51o_0" departPos="5.10" departSpeed="0.00" departDelay="4.00" arrival="96.00" arrivalLane="52i_0" arrivalPos="10.00" arrivalSpeed="12.18" duration="88.00" routeLength="1015.10" waitingTime="0.00" waitingCount="0" stopTime="0.00" timeLoss="14.94" rerouteNo="0" devices="tripinfo_right_3" vType="typeWE" speedFactor="1.08" vaporized=""/>
    <tripinfo id="left_1" depart="5.00" departLane="52o_0" departPos="5.10" departSpeed="0.00" departDelay="3.00" arrival="99.00" arrivalLane="51i_0" arrivalPos="10.00" arrivalSpeed="10.67" duration="94.00" routeLength="1015.10" waitingTime="0.00" waitingCount="0" stopTime="0.00" timeLoss="14.79" rerouteNo="0" devices="tripinfo_left_1" vType="typeWE" speedFactor="0.94" vaporized=""/>
    <tripinfo id="left_4" depart="10.00" departLane="52o_0" departPos="5.10" departSpeed="0.00" departDelay="6.00" arrival="101.00" arrivalLane="51i_0" arrivalPos="10.00" arrivalSpeed="11.49" duration="91.00" routeLength="1015.10" waitingTime="0.00" waitingCount="0" stopTime="0.00" timeLoss="15.65" rerouteNo="0" devices="tripinfo_left_4" vType="typeWE" speedFactor="1.03" vaporized=""/>
    <tripinfo id="right_7" depart="13.00" departLane="51o_0" departPos="5.10" departSpeed="0.00" departDelay="4.00" arrival="110.00" arrivalLane="52i_0" arrivalPos="10.00" arrivalSpeed="10.20" duration="97.00" routeLength="1015.10" waitingTime="0.00" waitingCount="0" stopTime="0.00" timeLoss="14.89" rerouteNo="0" devices="tripinfo_right_7" vType="typeWE" speedFactor="0.89" vaporized=""/>
    <tripinfo id="left_5" depart="15.00" departLane="52o_0" departPos="5.10" departSpeed="0.00" departDelay="9.00" arrival="116.00" arrivalLane="51i_0" arrivalPos="10.00" arrivalSpeed="9.80" duration="101.00" routeLength="1015.10" waitingTime="0.00" waitingCount="0" stopTime="0.00" timeLoss="15.10" rerouteNo="0" devices="tripinfo_left_5" vType="typeWE" speedFactor="0.83" vaporized=""/>
    <tripinfo id="down_6" depart="8.00" departLane="54o_0" departPos="7.10" departSpeed="0.00" departDelay="0.00" arrival="120.00" arrivalLane="53i_0" arrivalPos="10.00" arrivalSpeed="12.05" duration="112.00" routeLength="1013.10" waitingTime="13.00" waitingCount="1" stopTime="0.00" timeLoss="43.35" rerouteNo="0" devices="tripinfo_down_6" vType="typeNS" speedFactor="1.05" vaporized=""/>
    <tripinfo id="down_8" depart="14.00" departLane="54o_0" departPos="7.10" departSpeed="0.00" departDelay="1.00" arrival="127.00" arrivalLane="53i_0" arrivalPos="10.00" arrivalSpeed="10.86" duration="113.00" routeLength="1013.10" waitingTime="8.00" waitingCount="1" stopTime="0.00" timeLoss="36.35" rerouteNo="0" devices="tripinfo_down_8" vType="typeNS" speedFactor="0.94" vaporized=""/>
    <tripinfo id="down_9" depart="20.00" departLane="54o_0" departPos="7.10" departSpeed="0.00" departDelay="6.00" arrival="134.00" arrivalLane="53i_0" arrivalPos="10.00" arrivalSpeed="9.70" duration="114.00" routeLength="1013.10" waitingTime="3.00" waitingCount="1" stopTime="0.00" timeLoss="30.06" rerouteNo="0" devices="tripinfo_down_9" vType="typeNS" speedFactor="0.86" vaporized=""/>
    <tripinfo id="down_14" depart="29.00" departLane="54o_0" departPos="7.10" departSpeed="0.00" departDelay="0.00" arrival="136.00" arrivalLane="53i_0" arrivalPos="10.00" arrivalSpeed="10.41" duration="107.00" routeLength="1013.10" waitingTime="0.00" waitingCount="0" stopTime="0.00" timeLoss="34.51" rerouteNo="0" devices="tripinfo_down_14" vType="typeNS" speedFactor="0.99" vaporized=""/>
    <tripinfo id="down_21" depart="43.00" departLane="54o_0" departPos="7.10" departSpeed="0.00" departDelay="0.00" arrival="138.00" arrivalLane="53i_0" arrivalPos="10.00" arrivalSpeed="10.86" duration="95.00" routeLength="1013.10" waitingTime="0.00" waitingCount="0" stopTime="0.00" timeLoss="23.93" rerouteNo="0" devices="tripinfo_down_21" vType="typeNS" speedFactor="1.01" vaporized=""/>
    <tripinfo id="down_22" depart="49.00" departLane="54o_0" departPos="7.10" departSpeed="0.00" departDelay="5.00" arrival="140.00" arrivalLane="53i_0" arrivalPos="10.00" arrivalSpeed="11.38" duration="91.00" routeLength="1013.10" waitingTime="0.00" waitingCount="0" stopTime="0.00" timeLoss="17.69" rerouteNo="0" devices="tripinfo_down_22" vType="typeNS" speedFactor="0.98" vaporized=""/>
    <tripinfo id="left_10" depart="20.00" departLane="52o_0" departPos="5.10" departSpeed="0.00" departDelay="5.00" arrival="154.00" arrivalLane="51i_0" arrivalPos="10.00" arrivalSpeed="12.66" duration="134.00" routeLength="1015.10" waitingTime="34.00" waitingCount="1" stopTime="0.00" timeLoss="61.17" rerouteNo="0" devices="tripinfo_left_10" vType="typeWE" speedFactor="1.09" vaporized=""/>
    <tripinfo id="left_11" depart="26.00" departLane="52o_0" departPos="5.10" departSpeed="0.00" departDelay="7.00" arrival="158.00" arrivalLane="51i_0" arrivalPos="10.00" arrivalSpeed="11.68" duration="132.00" routeLength="1015.10" waitingTime="30.00" waitingCount="1" stopTime="0.00" timeLoss="57.04" rerouteNo="0" devices="tripinfo_left_11" vType="typeWE" speedFactor="1.03" vaporized=""/>
    <tripinfo id="left_12" depart="31.00" departLane="52o_0" departPos="5.10" departSpeed="0.00" departDelay="9.00" arrival="160.00" arrivalLane="51i_0" arrivalPos="10.00" arrivalSpeed="12.19" duration="129.00" routeLength="1015.10" waitingTime="26.00" waitingCount="1" stopTime="0.00" timeLoss="54.61" rerouteNo="0" devices="tripinfo_left_12" vType="typeWE" speedFactor="1.05" vaporized=""/>
    <tripinfo id="right_15" depart="30.00" departLane="51o_0" departPos="5.10" departSpeed="0.00" departDelay="0.00" arrival="160.00" arrivalLane="52i_0" arrivalPos="10.00" arrivalSpeed="10.86" duration="130.00" routeLength="1015.10" waitingTime="25.00" waitingCount="1" stopTime="0.00" timeLoss="49.95" rerouteNo="0" devices="tripinfo_right_15" vType="typeWE" speedFactor="0.93" vaporized=""/>
    <tripinfo id="left_13" depart="36.00" departLane="52o_0" departPos="5.10" departSpeed="0.00" departDelay="7.00" arrival="161.00" arrivalLane="51i_0" arrivalPos="10.00" arrivalSpeed="12.32" duration="125.00" routeLength="1015.10" waitingTime="22.00" waitingCount="1" stopTime="0.00" timeLoss="53.99" rerouteNo="0" devices="tripinfo_left_13" vType="typeWE" speedFactor="1.12" vaporized=""/>
    <tripinfo id="right_20" depart="42.00" departLane="51o_0" departPos="5.10" departSpeed="0.00" departDelay="0.00" arrival="161.00" arrivalLane="52i_0" arrivalPos="10.00" arrivalSpeed="10.84" duration="119.00" routeLength="1015.10" waitingTime="14.00" waitingCount="1" stopTime="0.00" timeLoss="44.01" rerouteNo="0" devices="tripinfo_right_20" vType="typeWE" speedFactor="1.02" vaporized=""/>
    <tripinfo id="right_27" depart="55.00" departLane="51o_0" departPos="5.10" departSpeed="0.00" departDelay="0.00" arrival="164.00" arrivalLane="52i_0" arrivalPos="10.00" arrivalSpeed="10.97" duration="109.00" routeLength="1015.10" waitingTime="1.00" waitingCount="1" stopTime="0.00" timeLoss="30.07" rerouteNo="0" devices="tripinfo_right_27" vType="typeWE" speedFactor="0.95" vaporized=""/>
    <tripinfo id="right_31" depart="61.00" departLane="51o_0" departPos="5.10" departSpeed="0.00" departDelay="0.00" arrival="165.00" arrivalLane="52i_0" arrivalPos="10.00" arrivalSpeed="10.92" duration="104.00" routeLength="1015.10" waitingTime="0.00" waitingCount="0" stopTime="0.00" timeLoss="34.17" rerouteNo="0" devices="tripinfo_right_31" vType="typeWE" speedFactor="1.15" vaporized=""/>
    <tripinfo id="right_33" depart="69.00" departLane="51o_0" departPos="5.10" departSpeed="0.00" departDelay="0.00" arrival="167.00" arrivalLane="52i_0" arrivalPos="10.00" arrivalSpeed="11.69" duration="98.00" routeLength="1015.10" waitingTime="0.00" waitingCount="0" stopTime="0.00" timeLoss="28.42" rerouteNo="0" devices="tripinfo_right_33" vType="typeWE" speedFactor="1.17" vaporized=""/>
    <tripinfo id="right_35" depart="76.00" departLane="51o_0" departPos="5.10" departSpeed="0.00" departDelay="0.00" arrival="169.00" arrivalLane="52i_0" arrivalPos="10.00" arrivalSpeed="11.72" duration="93.00" routeLength="1015.10" waitingTime="0.00" waitingCount="0" stopTime="0.00" timeLoss="17.32" rerouteNo="0" devices="tripinfo_right_35" vType="typeWE" speedFactor="1.02" vaporized=""/>
    <tripinfo id="left_16" depart="41.00" departLane="52o_0" departPos="5.10" departSpeed="0.00" departDelay="10.00" arrival="171.00" arrivalLane="51i_0" arrivalPos="10.00" arrivalSpeed="10.22" duration="130.00" routeLength="1015.10" waitingTime="20.00" waitingCount="1" stopTime="0.00" timeLoss="47.48" rerouteNo="0" devices="tripinfo_left_16" vType="typeWE" speedFactor="0.88" vaporized=""/>
    <tripinfo id="left_17" depart="46.00" departLane="52o_0" departPos="5.10" departSpeed="0.00" departDelay="13.00" arrival="173.00" arrivalLane="51i_0" arrivalPos="10.00" arrivalSpeed="11.00" duration="127.00" routeLength="1015.10" waitingTime="15.00" waitingCount="1" stopTime="0.00" timeLoss="47.58" rerouteNo="0" devices="tripinfo_left_17" vType="typeWE" speedFactor="0.94" vaporized=""/>
    <tripinfo id="left_18" depart="51.00" departLane="52o_0" departPos="5.10" departSpeed="0.00" departDelay="16.00" arrival="175.00" arrivalLane="51i_0" arrivalPos="10.00" arrivalSpeed="10.86" duration="124.00" routeLength="1015.10" waitingTime="13.00" waitingCount="2" stopTime="0.00" timeLoss="44.26" rerouteNo="0" devices="tripinfo_left_18" vType="typeWE" speedFactor="0.94" vaporized=""/>
    <tripinfo id="left_19" depart="57.00" departLane="52o_0" departPos="5.10" departSpeed="0.00" departDelay="16.00" arrival="176.00" arrivalLane="51i_0" arrivalPos="10.00" arrivalSpeed="11.05" duration="119.00" routeLength="1015.10" waitingTime="8.00" waitingCount="1" stopTime="0.00" timeLoss="49.17" rerouteNo="0" devices="tripinfo_left_19" vType="typeWE" speedFactor="1.16" vaporized=""/>
    <tripinfo id="down_30" depart="58.00" departLane="54o_0" departPos="7.10" departSpeed="0.00" departDelay="0.00" arrival="176.00" arrivalLane="53i_0" arrivalPos="10.00" arrivalSpeed="13.54" duration="118.00" routeLength="1013.10" waitingTime="25.00" waitingCount="1" stopTime="0.00" timeLoss="57.44" rerouteNo="0" devices="tripinfo_down_30" vType="typeNS" speedFactor="1.18" vaporized=""/>
    <tripinfo id="down_32" depart="65.00" departLane="54o_0" departPos="7.10" departSpeed="0.00" departDelay="0.00" arrival="184.00" arrivalLane="53i_0" arrivalPos="10.00" arrivalSpeed="11.87" duration="119.00" routeLength="1013.10" waitingTime="18.00" waitingCount="1" stopTime="0.00" timeLoss="48.02" rerouteNo="0" devices="tripinfo_down_32" vType="typeNS" speedFactor="1.01" vaporized=""/>
    <tripinfo id="down_34" depart="74.00" departLane="54o_0" departPos="7.10" departSpeed="0.00" departDelay="0.00" arrival="187.00" arrivalLane="53i_0" arrivalPos="10.00" arrivalSpeed="11.35" duration="113.00" routeLength="1013.10" waitingTime="11.00" waitingCount="1" stopTime="0.00" timeLoss="41.27" rerouteNo="0" devices="tripinfo_down_34" vType="typeNS" speedFactor="0.99" vaporized=""/>
    <tripinfo id="down_36" depart="79.00" departLane="54o_0" departPos="7.10" departSpeed="0.00" departDelay="3.00" arrival="190.00" arrivalLane="53i_0" arrivalPos="10.00" arrivalSpeed="11.20" duration="111.00" routeLength="1013.10" waitingTime="6.00" waitingCount="1" stopTime="0.00" timeLoss="37.64" rerouteNo="0" devices="tripinfo_down_36" vType="typeNS" speedFactor="0.97" vaporized=""/>
    <tripinfo id="down_41" depart="89.00" departLane="54o_0" departPos="7.10" departSpeed="0.00" departDelay="0.00" arrival="193.00" arrivalLane="53i_0" arrivalPos="10.00" arrivalSpeed="11.38" duration="104.00" routeLength="1013.10" waitingTime="0.00" waitingCount="0" stopTime="0.00" timeLoss="29.09" rerouteNo="0" devices="tripinfo_down_41" vType="typeNS" speedFactor="0.96" vaporized=""/>
    <tripinfo id="down_43" depart="95.00" departLane="54o_0" departPos="7.10" departSpeed="0.00" departDelay="4.00" arrival="195.00" arrivalLane="53i_0" arrivalPos="10.00" arrivalSpeed="12.02" duration="100.00" routeLength="1013.10" waitingTime="0.00" waitingCount="0" stopTime="0.00" timeLoss="30.68" rerouteNo="0" devices="tripinfo_down_43" vType="typeNS" speedFactor="1.04" vaporized=""/>
    <tripinfo id="down_45" depart="101.00" departLane="54o_0" departPos="7.10" departSpeed="0.00" departDelay="6.00" arrival="197.00" arrivalLane="53i_0" arrivalPos="10.00" arrivalSpeed="12.28" duration="96.00" routeLength="1013.10" waitingTime="0.00" waitingCount="0" stopTime="0.00" timeLoss="29.68" rerouteNo="0" devices="tripinfo_down_45" vType="typeNS" speedFactor="1.09" vaporized=""/>
    <tripinfo id="down_46" depart="106.00" departLane="54o_0" departPos="7.10" departSpeed="0.00" departDelay="10.00" arrival="199.00" arrivalLane="53i_0" arrivalPos="10.00" arrivalSpeed="11.41" duration="93.00" routeLength="1013.10" waitingTime="0.00" waitingCount="0" stopTime="0.00" timeLoss="20.94" rerouteNo="0" devices="tripinfo_down_46" vType="typeNS" speedFactor="1.00" vaporized=""/>
    <tripinfo id="down_50" depart="112.00" departLane="54o_0" departPos="7.10" departSpeed="0.00" departDelay="11.00" arrival="212.00" arrivalLane="53i_0" arrivalPos="10.00" arrivalSpeed="10.01" duration="100.00" routeLength="1013.10" waitingTime="0.00" waitingCount="0" stopTime="0.00" timeLoss="16.17" rerouteNo="0" devices="tripinfo_down_50" vType="typeNS" speedFactor="0.85" vaporized=""/>
    <tripinfo id="right_37" depart="81.00" departLane="51o_0" departPos="5.10" departSpeed="0.00" departDelay="4.00" arrival="213.00" arrivalLane="52i_0" arrivalPos="10.00" arrivalSpeed="13.53" duration="132.00" routeLength="1015.10" waitingTime="35.00" waitingCount="1" stopTime="0.00" timeLoss="62.87" rerouteNo="0" devices="tripinfo_right_37" vType="typeWE" speedFactor="1.18" vaporized=""/>
    <tripinfo id="left_23" depart="62.00" departLane="52o_0" departPos="5.10" departSpeed="0.00" departDelay="17.00" arrival="221.00" arrivalLane="51i_0" arrivalPos="10.00" arrivalSpeed="10.48" duration="159.00" routeLength="1015.10" waitingTime="39.00" waitingCount="2" stopTime="0.00" timeLoss="77.50" rerouteNo="0" devices="tripinfo_left_23" vType="typeWE" speedFactor="0.89" vaporized=""/>
    <tripinfo id="right_39" depart="86.00" departLane="51o_0" departPos="5.10" departSpeed="0.00" departDelay="2.00" arrival="225.00" arrivalLane="52i_0" arrivalPos="10.00" arrivalSpeed="10.27" duration="139.00" routeLength="1015.10" waitingTime="29.00" waitingCount="1" stopTime="0.00" timeLoss="57.71" rerouteNo="0" devices="tripinfo_right_39" vType="typeWE" speedFactor="0.90" vaporized=""/>
    <tripinfo id="left_24" depart="67.00" departLane="52o_0" departPos="5.10" departSpeed="0.00" departDelay="21.00" arrival="227.00" arrivalLane="51i_0" arrivalPos="10.00" arrivalSpeed="9.31" duration="160.00" routeLength="1015.10" waitingTime="34.00" waitingCount="1" stopTime="0.00" timeLoss="73.59" rerouteNo="0" devices="tripinfo_left_24" vType="typeWE" speedFactor="0.83" vaporized=""/>
    <tripinfo id="right_44" depart="92.00" departLane="51o_0" departPos="5.10" departSpeed="0.00" departDelay="0.00" arrival="227.00" arrivalLane="52i_0" arrivalPos="10.00" arrivalSpeed="11.25" duration="135.00" routeLength="1015.10" waitingTime="25.00" waitingCount="1" stopTime="0.00" timeLoss="60.32" rerouteNo="0" devices="tripinfo_right_44" vType="typeWE" speedFactor="1.04" vaporized=""/>
    <tripinfo id="left_25" depart="72.00" departLane="52o_0" departPos="5.10" departSpeed="0.00" departDelay="21.00" arrival="229.00" arrivalLane="51i_0" arrivalPos="10.00" arrivalSpeed="9.84" duration="157.00" routeLength="1015.10" waitingTime="34.00" waitingCount="1" stopTime="0.00" timeLoss="74.50" rerouteNo="0" devices="tripinfo_left_25" vType="typeWE" speedFactor="0.87" vaporized=""/>
    <tripinfo id="right_47" depart="101.00" departLane="51o_0" departPos="5.10" departSpeed="0.00" departDelay="2.00" arrival="229.00" arrivalLane="52i_0" arrivalPos="10.00" arrivalSpeed="10.39" duration="128.00" routeLength="1015.10" waitingTime="17.00" waitingCount="1" stopTime="0.00" timeLoss="46.47" rerouteNo="0" devices="tripinfo_right_47" vType="typeWE" speedFactor="0.90" vaporized=""/>
    <tripinfo id="right_52" depart="106.00" departLane="51o_0" departPos="5.10" departSpeed="0.00" departDelay="0.00" arrival="230.00" arrivalLane="52i_0" arrivalPos="10.00" arrivalSpeed="10.54" duration="124.00" routeLength="1015.10" waitingTime="14.00" waitingCount="1" stopTime="0.00" timeLoss="48.90" rerouteNo="0" devices="tripinfo_right_52" vType="typeWE" speedFactor="1.02" vaporized=""/>
    <tripinfo id="left_26" depart="77.00" departLane="52o_0" departPos="5.10" departSpeed="0.00" departDelay="24.00" arrival="231.00" arrivalLane="51i_0" arrivalPos="10.00" arrivalSpeed="10.31" duration="154.00" routeLength="1015.10" waitingTime="33.00" waitingCount="1" stopTime="0.00" timeLoss="73.92" rerouteNo="0" devices="tripinfo_left_26" vType="typeWE" speedFactor="0.92" vaporized=""/>
    <tripinfo id="right_53" depart="112.00" departLane="51o_0" departPos="5.10" departSpeed="0.00" departDelay="4.00" arrival="232.00" arrivalLane="52i_0" arrivalPos="10.00" arrivalSpeed="10.76" duration="120.00" routeLength="1015.10" waitingTime="10.00" waitingCount="1" stopTime="0.00" timeLoss="47.88" rerouteNo="0" devices="tripinfo_right_53" vType="typeWE" speedFactor="1.10" vaporized=""/>
    <tripinfo id="left_28" depart="83.00" departLane="52o_0" departPos="5.10" departSpeed="0.00" departDelay="27.00" arrival="233.00" arrivalLane="51i_0" arrivalPos="10.00" arrivalSpeed="10.58" duration="150.00" routeLength="1015.10" waitingTime="33.00" waitingCount="1" stopTime="0.00" timeLoss="79.02" rerouteNo="0" devices="tripinfo_left_28" vType="typeWE" speedFactor="1.13" vaporized=""/>
    <tripinfo id="right_54" depart="117.00" departLane="51o_0" departPos="5.10" departSpeed="0.00" departDelay="6.00" arrival="234.00" arrivalLane="52i_0" arrivalPos="10.00" arrivalSpeed="11.19" duration="117.00" routeLength="1015.10" waitingTime="7.00" waitingCount="1" stopTime="0.00" timeLoss="40.87" rerouteNo="0" devices="tripinfo_right_54" vType="typeWE" speedFactor="1.00" vaporized=""/>
    <tripinfo id="left_29" depart="88.00" departLane="52o_0" departPos="5.10" departSpeed="0.00" departDelay="30.00" arrival="235.00" arrivalLane="51i_0" arrivalPos="10.00" arrivalSpeed="10.62" duration="147.00" routeLength="1015.10" waitingTime="32.00" waitingCount="1" stopTime="0.00" timeLoss="67.28" rerouteNo="0" devices="tripinfo_left_29" vType="typeWE" speedFactor="0.93" vaporized=""/>
    <tripinfo id="left_38" depart="96.00" departLane="52o_0" departPos="5.10" departSpeed="0.00" departDelay="18.00" arrival="237.00" arrivalLane="51i_0" arrivalPos="10.00" arrivalSpeed="11.03" duration="141.00" routeLength="1015.10" waitingTime="29.00" waitingCount="1" stopTime="0.00" timeLoss="68.55" rerouteNo="0" devices="tripinfo_left_38" vType="typeWE" speedFactor="1.10" vaporized=""/>
    <tripinfo id="down_57" depart="118.00" departLane="54o_0" departPos="7.10" departSpeed="0.00" departDelay="1.00" arrival="238.00" arrivalLane="53i_0" arrivalPos="10.00" arrivalSpeed="13.35" duration="120.00" routeLength="1013.10" waitingTime="23.00" waitingCount="2" stopTime="0.00" timeLoss="57.27" rerouteNo="0" devices="tripinfo_down_57" vType="typeNS" speedFactor="1.14" vaporized=""/>
    <tripinfo id="left_40" depart="101.00" departLane="52o_0" departPos="5.10" departSpeed="0.00" departDelay="16.00" arrival="251.00" arrivalLane="51i_0" arrivalPos="10.00" arrivalSpeed="11.83" duration="150.00" routeLength="1015.10" waitingTime="34.00" waitingCount="2" stopTime="0.00" timeLoss="75.18" rerouteNo="0" devices="tripinfo_left_40" vType="typeWE" speedFactor="1.03" vaporized=""/>
    <tripinfo id="left_42" depart="106.00" departLane="52o_0" departPos="5.10" departSpeed="0.00" departDelay="15.00" arrival="253.00" arrivalLane="51i_0" arrivalPos="10.00" arrivalSpeed="12.63" duration="147.00" routeLength="1015.10" waitingTime="32.00" waitingCount="2" stopTime="0.00" timeLoss="74.27" rerouteNo="0" devices="tripinfo_left_42" vType="typeWE" speedFactor="1.09" vaporized=""/>
    <tripinfo id="right_55" depart="122.00" departLane="51o_0" departPos="5.10" departSpeed="0.00" departDelay="8.00" arrival="253.00" arrivalLane="52i_0" arrivalPos="10.00" arrivalSpeed="11.72" duration="131.00" routeLength="1015.10" waitingTime="16.00" waitingCount="2" stopTime="0.00" timeLoss="54.80" rerouteNo="0" devices="tripinfo_right_55" vType="typeWE" speedFactor="1.00" vaporized=""/>
    <tripinfo id="right_61" depart="127.00" departLane="51o_0" departPos="5.10" departSpeed="0.00" departDelay="2.00" arrival="255.00" arrivalLane="52i_0" arrivalPos="10.00" arrivalSpeed="12.21" duration="128.00" routeLength="1015.10" waitingTime="11.00" waitingCount="1" stopTime="0.00" timeLoss="56.36" rerouteNo="0" devices="tripinfo_right_61" vType="typeWE" speedFactor="1.12" vaporized=""/>
    <tripinfo id="right_64" depart="135.00" departLane="51o_0" departPos="5.10" departSpeed="0.00" departDelay="0.00" arrival="260.00" arrivalLane="52i_0" arrivalPos="10.00" arrivalSpeed="10.67" duration="125.00" routeLength="1015.10" waitingTime="11.00" waitingCount="1" stopTime="0.00" timeLoss="45.34" rerouteNo="0" devices="tripinfo_right_64" vType="typeWE" speedFactor="0.94" vaporized=""/>
    <tripinfo id="down_60" depart="125.00" departLane="54o_0" departPos="7.10" departSpeed="0.00" departDelay="3.00" arrival="262.00" arrivalLane="53i_0" arrivalPos="10.00" arrivalSpeed="12.39" duration="137.00" routeLength="1013.10" waitingTime="35.00" waitingCount="2" stopTime="0.00" timeLoss="71.08" rerouteNo="0" devices="tripinfo_down_60" vType="typeNS" speedFactor="1.08" vaporized=""/>
    <tripinfo id="left_48" depart="111.00" departLane="52o_0" departPos="5.10" departSpeed="0.00" departDelay="12.00" arrival="263.00" arrivalLane="51i_0" arrivalPos="10.00" arrivalSpeed="10.11" duration="152.00" routeLength="1015.10" waitingTime="29.00" waitingCount="2" stopTime="0.00" timeLoss="69.14" rerouteNo="0" devices="tripinfo_left_48" vType="typeWE" speedFactor="0.88" vaporized=""/>
    <tripinfo id="down_62" depart="131.00" departLane="54o_0" departPos="7.10" departSpeed="0.00" departDelay="3.00" arrival="268.00" arrivalLane="53i_0" arrivalPos="10.00" arrivalSpeed="11.63" duration="137.00" routeLength="1013.10" waitingTime="29.00" waitingCount="2" stopTime="0.00" timeLoss="66.46" rerouteNo="0" devices="tripinfo_down_62" vType="typeNS" speedFactor="1.02" vaporized=""/>
    <tripinfo id="right_66" depart="140.00" departLane="51o_0" departPos="5.10" departSpeed="0.00" departDelay="2.00" arrival="282.00" arrivalLane="52i_0" arrivalPos="10.00" arrivalSpeed="10.36" duration="142.00" routeLength="1015.10" waitingTime="22.00" waitingCount="2" stopTime="0.00" timeLoss="61.43" rerouteNo="0" devices="tripinfo_right_66" vType="typeWE" speedFactor="0.91" vaporized=""/>
    <tripinfo id="right_71" depart="145.00" departLane="51o_0" departPos="5.10" departSpeed="0.00" departDelay="1.00" arrival="284.00" arrivalLane="52i_0" arrivalPos="10.00" arrivalSpeed="10.95" duration="139.00" routeLength="1015.10" waitingTime="20.00" waitingCount="2" stopTime="0.00" timeLoss="61.59" rerouteNo="0" devices="tripinfo_right_71" vType="typeWE" speedFactor="0.97" vaporized=""/>
    <tripinfo id="left_49" depart="116.00" departLane="52o_0" departPos="5.10" departSpeed="0.00" departDelay="15.00" arrival="285.00" arrivalLane="51i_0" arrivalPos="10.00" arrivalSpeed="10.16" duration="169.00" routeLength="1015.10" waitingTime="34.00" waitingCount="3" stopTime="0.00" timeLoss="84.76" rerouteNo="0" devices="tripinfo_left_49" vType="typeWE" speedFactor="0.85" vaporized=""/>
    <tripinfo id="right_72" depart="150.00" departLane="51o_0" departPos="5.10" departSpeed="0.00" departDelay="5.00" arrival="286.00" arrivalLane="52i_0" arrivalPos="10.00" arrivalSpeed="10.99" duration="136.00" routeLength="1015.10" waitingTime="17.00" waitingCount="2" stopTime="0.00" timeLoss="56.79" rerouteNo="0" devices="tripinfo_right_72" vType="typeWE" speedFactor="0.94" vaporized=""/>
    <tripinfo id="left_51" depart="121.00" departLane="52o_0" departPos="5.10" departSpeed="0.00" departDelay="17.00" arrival="287.00" arrivalLane="51i_0" arrivalPos="10.00" arrivalSpeed="10.67" duration="166.00" routeLength="1015.10" waitingTime="30.00" waitingCount="3" stopTime="0.00" timeLoss="96.22" rerouteNo="0" devices="tripinfo_left_51" vType="typeWE" speedFactor="1.17" vaporized=""/>
    <tripinfo id="left_56" depart="127.00" departLane="52o_0" departPos="5.10" departSpeed="0.00" departDelay="13.00" arrival="289.00" arrivalLane="51i_0" arrivalPos="10.00" arrivalSpeed="10.56" duration="162.00" routeLength="1015.10" waitingTime="25.00" waitingCount="3" stopTime="0.00" timeLoss="80.53" rerouteNo="0" devices="tripinfo_left_56" vType="typeWE" speedFactor="0.90" vaporized=""/>
    <tripinfo id="down_68" depart="139.00" departLane="54o_0" departPos="7.10" departSpeed="0.00" departDelay="0.00" arrival="290.00" arrivalLane="53i_0" arrivalPos="10.00" arrivalSpeed="11.79" duration="151.00" routeLength="1013.10" waitingTime="37.00" waitingCount="3" stopTime="0.00" timeLoss="82.57" rerouteNo="0" devices="tripinfo_down_68" vType="typeNS" speedFactor="1.04" vaporized=""/>
    <tripinfo id="down_81" depart="168.00" departLane="54o_0" departPos="7.10" departSpeed="0.00" departDelay="0.00" arrival="294.00" arrivalLane="53i_0" arrivalPos="10.00" arrivalSpeed="11.47" duration="126.00" routeLength="1013.10" waitingTime="14.00" waitingCount="2" stopTime="0.00" timeLoss="54.16" rerouteNo="0" devices="tripinfo_down_81" vType="typeNS" speedFactor="1.00" vaporized=""/>
    <tripinfo id="left_58" depart="132.00" departLane="52o_0" departPos="5.10" departSpeed="0.00" departDelay="14.00" arrival="302.00" arrivalLane="51i_0" arrivalPos="10.00" arrivalSpeed="11.50" duration="170.00" routeLength="1015.10" waitingTime="32.00" waitingCount="4" stopTime="0.00" timeLoss="94.85" rerouteNo="0" devices="tripinfo_left_58" vType="typeWE" speedFactor="1.02" vaporized=""/>
    <tripinfo id="right_74" depart="155.00" departLane="51o_0" departPos="5.10" departSpeed="0.00" departDelay="0.00" arrival="304.00" arrivalLane="52i_0" arrivalPos="10.00" arrivalSpeed="10.89" duration="149.00" routeLength="1015.10" waitingTime="24.00" waitingCount="3" stopTime="0.00" timeLoss="70.56" rerouteNo="0" devices="tripinfo_right_74" vType="typeWE" speedFactor="0.96" vaporized=""/>
    <tripinfo id="left_59" depart="137.00" departLane="52o_0" departPos="5.10" departSpeed="0.00" departDelay="18.00" arrival="306.00" arrivalLane="51i_0" arrivalPos="10.00" arrivalSpeed="11.05" duration="169.00" routeLength="1015.10" waitingTime="29.00" waitingCount="3" stopTime="0.00" timeLoss="91.31" rerouteNo="0" devices="tripinfo_left_59" vType="typeWE" speedFactor="0.97" vaporized=""/>
    <tripinfo id="right_79" depart="167.00" departLane="51o_0" departPos="5.10" departSpeed="0.00" departDelay="0.00" arrival="306.00" arrivalLane="52i_0" arrivalPos="10.00" arrivalSpeed="11.39" duration="139.00" routeLength="1015.10" waitingTime="18.00" waitingCount="2" stopTime="0.00" timeLoss="66.04" rerouteNo="0" devices="tripinfo_right_79" vType="typeWE" speedFactor="1.09" vaporized=""/>
    <tripinfo id="left_63" depart="143.00" departLane="52o_0" departPos="5.10" departSpeed="0.00" departDelay="12.00" arrival="308.00" arrivalLane="51i_0" arrivalPos="10.00" arrivalSpeed="11.53" duration="165.00" routeLength="1015.10" waitingTime="27.00" waitingCount="4" stopTime="0.00" timeLoss="87.93" rerouteNo="0" devices="tripinfo_left_63" vType="typeWE" speedFactor="0.99" vaporized=""/>
    <tripinfo id="down_84" depart="174.00" departLane="54o_0" departPos="7.10" departSpeed="0.00" departDelay="2.00" arrival="311.00" arrivalLane="53i_0" arrivalPos="10.00" arrivalSpeed="12.37" duration="137.00" routeLength="1013.10" waitingTime="25.00" waitingCount="2" stopTime="0.00" timeLoss="74.77" rerouteNo="0" devices="tripinfo_down_84" vType="typeNS" speedFactor="1.15" vaporized=""/>