<?xml version="1.0" encoding="UTF-8"?>

<!-- generated on Thu Oct 17 03:27:32 2019 by Eclipse SUMO Version 1.2.0
<configuration xmlns:xsi="http://www.w3.org/2001/XMLSchema-instance" xsi:noNamespaceSchemaLocation="http://sumo.dlr.de/xsd/sumoConfiguration.xsd">

    <input>
        <net-file value="data/cross.net.xml"/>
        <route-files value="data/cross.rou.xml"/>
        <additional-files value="data/cross.tlsp.xml"/>
    </input>

    <output>
        <tripinfo-output value="tripinfo_isolated2.xml"/>
    </output>

    <time>
        <begin value="0"/>
        <step-length value="1"/>
    </time>

    <report>
        <verbose value="true"/>
        <no-step-log value="true"/>
    </report>

    <traci_server>
        <remote-port value="58947"/>
    </traci_server>

    <gui_only>
        <tracker-interval value="1"/>
    </gui_only>

</configuration>
-->

<tripinfos xmlns:xsi="http://www.w3.org/2001/XMLSchema-instance" xsi:noNamespaceSchemaLocation="http://sumo.dlr.de/xsd/tripinfo_file.xsd">
    <tripinfo id="down_6" depart="6.00" departLane="54o_0" departPos="5.10" departSpeed="0.00" departDelay="0.00" arrival="96.00" arrivalLane="53i_0" arrivalPos="10.00" arrivalSpeed="11.89" duration="90.00" routeLength="1015.10" waitingTime="0.00" waitingCount="0" stopTime="0.00" timeLoss="15.58" rerouteNo="0" devices="tripinfo_down_6" vType="passenger" speedFactor="1.05" vaporized=""/>
    <tripinfo id="up_5" depart="4.00" departLane="53o_0" departPos="5.10" departSpeed="0.00" departDelay="0.00" arrival="106.00" arrivalLane="54i_0" arrivalPos="10.00" arrivalSpeed="9.74" duration="102.00" routeLength="1015.10" waitingTime="0.00" waitingCount="0" stopTime="0.00" timeLoss="16.20" rerouteNo="0" devices="tripinfo_up_5" vType="passenger" speedFactor="0.83" vaporized=""/>
    <tripinfo id="up_10" depart="16.00" departLane="53o_0" departPos="5.10" departSpeed="0.00" departDelay="0.00" arrival="108.00" arrivalLane="54i_0" arrivalPos="10.00" arrivalSpeed="10.41" duration="92.00" routeLength="1015.10" waitingTime="0.00" waitingCount="0" stopTime="0.00" timeLoss="19.57" rerouteNo="0" devices="tripinfo_up_10" vType="passenger" speedFactor="1.09" vaporized=""/>
    <tripinfo id="left_0" depart="0.00" departLane="52o_0" departPos="5.10" departSpeed="0.00" departDelay="0.00" arrival="119.00" arrivalLane="51i_0" arrivalPos="10.00" arrivalSpeed="12.08" duration="119.00" routeLength="1015.10" waitingTime="20.00" waitingCount="1" stopTime="0.00" timeLoss="45.08" rerouteNo="0" devices="tripinfo_left_0" vType="passenger" speedFactor="1.06" vaporized=""/>
    <tripinfo id="right_2" depart="3.00" departLane="51o_0" departPos="5.10" departSpeed="0.00" departDelay="0.00" arrival="121.00" arrivalLane="52i_0" arrivalPos="10.00" arrivalSpeed="11.60" duration="118.00" routeLength="1015.10" waitingTime="16.00" waitingCount="1" stopTime="0.00" timeLoss="42.18" rerouteNo="0" devices="tripinfo_right_2" vType="passenger" speedFactor="1.01" vaporized=""/>
    <tripinfo id="right_4" depart="8.00" departLane="51o_0" departPos="5.10" departSpeed="0.00" departDelay="4.00" arrival="123.00" arrivalLane="52i_0" arrivalPos="10.00" arrivalSpeed="11.55" duration="115.00" routeLength="1015.10" waitingTime="13.00" waitingCount="1" stopTime="0.00" timeLoss="39.80" rerouteNo="0" devices="tripinfo_right_4" vType="passenger" speedFactor="1.03" vaporized=""/>
    <tripinfo id="left_1" depart="5.00" departLane="52o_0" departPos="5.10" departSpeed="0.00" departDelay="3.00" arrival="126.00" arrivalLane="51i_0" arrivalPos="10.00" arrivalSpeed="10.81" duration="121.00" routeLength="1015.10" waitingTime="16.00" waitingCount="1" stopTime="0.00" timeLoss="42.08" rerouteNo="0" devices="tripinfo_left_1" vType="passenger" speedFactor="0.94" vaporized=""/>
    <tripinfo id="left_3" depart="10.00" departLane="52o_0" departPos="5.10" departSpeed="0.00" departDelay="7.00" arrival="128.00" arrivalLane="51i_0" arrivalPos="10.00" arrivalSpeed="11.44" duration="118.00" routeLength="1015.10" waitingTime="12.00" waitingCount="1" stopTime="0.00" timeLoss="45.21" rerouteNo="0" devices="tripinfo_left_3" vType="passenger" speedFactor="1.08" vaporized=""/>
    <tripinfo id="right_8" depart="13.00" departLane="51o_0" departPos="5.10" departSpeed="0.00" departDelay="2.00" arrival="128.00" arrivalLane="52i_0" arrivalPos="10.00" arrivalSpeed="10.50" duration="115.00" routeLength="1015.10" waitingTime="9.00" waitingCount="1" stopTime="0.00" timeLoss="35.96" rerouteNo="0" devices="tripinfo_right_8" vType="passenger" speedFactor="0.94" vaporized=""/>
    <tripinfo id="left_7" depart="15.00" departLane="52o_0" departPos="5.10" departSpeed="0.00" departDelay="5.00" arrival="133.00" arrivalLane="51i_0" arrivalPos="10.00" arrivalSpeed="10.49" duration="118.00" routeLength="1015.10" waitingTime="9.00" waitingCount="1" stopTime="0.00" timeLoss="35.97" rerouteNo="0" devices="tripinfo_left_7" vType="passenger" speedFactor="0.89" vaporized=""/>
    <tripinfo id="right_9" depart="18.00" departLane="51o_0" departPos="5.10" departSpeed="0.00" departDelay="4.00" arrival="134.00" arrivalLane="52i_0" arrivalPos="10.00" arrivalSpeed="10.06" duration="116.00" routeLength="1015.10" waitingTime="5.00" waitingCount="1" stopTime="0.00" timeLoss="32.59" rerouteNo="0" devices="tripinfo_right_9" vType="passenger" speedFactor="0.86" vaporized=""/>
    <tripinfo id="down_13" depart="23.00" departLane="54o_0" departPos="5.10" departSpeed="0.00" departDelay="0.00" arrival="134.00" arrivalLane="53i_0" arrivalPos="10.00" arrivalSpeed="12.31" duration="111.00" routeLength="1015.10" waitingTime="14.00" waitingCount="1" stopTime="0.00" timeLoss="39.99" rerouteNo="0" devices="tripinfo_down_13" vType="passenger" speedFactor="1.12" vaporized=""/>
    <tripinfo id="up_18" depart="32.00" departLane="53o_0" departPos="5.10" departSpeed="0.00" departDelay="0.00" arrival="141.00" arrivalLane="54i_0" arrivalPos="10.00" arrivalSpeed="10.70" duration="109.00" routeLength="1015.10" waitingTime="5.00" waitingCount="1" stopTime="0.00" timeLoss="30.05" rerouteNo="0" devices="tripinfo_up_18" vType="passenger" speedFactor="0.94" vaporized=""/>
    <tripinfo id="down_17" depart="31.00" departLane="54o_0" departPos="5.10" departSpeed="0.00" departDelay="0.00" arrival="143.00" arrivalLane="53i_0" arrivalPos="10.00" arrivalSpeed="10.96" duration="112.00" routeLength="1015.10" waitingTime="8.00" waitingCount="1" stopTime="0.00" timeLoss="32.99" rerouteNo="0" devices="tripinfo_down_17" vType="passenger" speedFactor="0.94" vaporized=""/>
    <tripinfo id="up_30" depart="51.00" departLane="53o_0" departPos="5.10" departSpeed="0.00" departDelay="0.00" arrival="143.00" arrivalLane="54i_0" arrivalPos="10.00" arrivalSpeed="10.97" duration="92.00" routeLength="1015.10" waitingTime="0.00" waitingCount="0" stopTime="0.00" timeLoss="22.56" rerouteNo="0" devices="tripinfo_up_30" vType="passenger" speedFactor="1.18" vaporized=""/>
    <tripinfo id="down_19" depart="36.00" departLane="54o_0" departPos="5.10" departSpeed="0.00" departDelay="3.00" arrival="145.00" arrivalLane="53i_0" arrivalPos="10.00" arrivalSpeed="11.00" duration="109.00" routeLength="1015.10" waitingTime="3.00" waitingCount="1" stopTime="0.00" timeLoss="38.82" rerouteNo="0" devices="tripinfo_down_19" vType="passenger" speedFactor="1.16" vaporized=""/>
    <tripinfo id="down_33" depart="57.00" departLane="54o_0" departPos="5.10" departSpeed="0.00" departDelay="0.00" arrival="146.00" arrivalLane="53i_0" arrivalPos="10.00" arrivalSpeed="10.80" duration="89.00" routeLength="1015.10" waitingTime="0.00" waitingCount="0" stopTime="0.00" timeLoss="19.52" rerouteNo="0" devices="tripinfo_down_33" vType="passenger" speedFactor="1.17" vaporized=""/>
    <tripinfo id="down_39" depart="72.00" departLane="54o_0" departPos="5.10" departSpeed="0.00" departDelay="0.00" arrival="170.00" arrivalLane="53i_0" arrivalPos="10.00" arrivalSpeed="10.50" duration="98.00" routeLength="1015.10" waitingTime="0.00" waitingCount="0" stopTime="0.00" timeLoss="16.27" rerouteNo="0" devices="tripinfo_down_39" vType="passenger" speedFactor="0.90" vaporized=""/>
    <tripinfo id="down_41" depart="77.00" departLane="54o_0" departPos="5.10" departSpeed="0.00" departDelay="3.00" arrival="171.00" arrivalLane="53i_0" arrivalPos="10.00" arrivalSpeed="10.31" duration="94.00" routeLength="1015.10" waitingTime="0.00" waitingCount="0" stopTime="0.00" timeLoss="16.28" rerouteNo="0" devices="tripinfo_down_41" vType="passenger" speedFactor="0.96" vaporized=""/>
    <tripinfo id="down_49" depart="85.00" departLane="54o_0" departPos="5.10" departSpeed="0.00" departDelay="0.00" arrival="184.00" arrivalLane="53i_0" arrivalPos="10.00" arrivalSpeed="10.06" duration="99.00" routeLength="1015.10" waitingTime="0.00" waitingCount="0" stopTime="0.00" timeLoss="14.84" rerouteNo="0" devices="tripinfo_down_49" vType="passenger" speedFactor="0.85" vaporized=""/>
    <tripinfo id="up_52" depart="93.00" departLane="53o_0" departPos="5.10" departSpeed="0.00" departDelay="0.00" arrival="184.00" arrivalLane="54i_0" arrivalPos="10.00" arrivalSpeed="11.67" duration="91.00" routeLength="1015.10" waitingTime="0.00" waitingCount="0" stopTime="0.00" timeLoss="15.68" rerouteNo="0" devices="tripinfo_up_52" vType="passenger" speedFactor="1.02" vaporized=""/>
    <tripinfo id="down_53" depart="98.00" departLane="54o_0" departPos="5.10" departSpeed="0.00" departDelay="0.00" arrival="186.00" arrivalLane="53i_0" arrivalPos="10.00" arrivalSpeed="11.31" duration="88.00" routeLength="1015.10" waitingTime="0.00" waitingCount="0" stopTime="0.00" timeLoss="15.69" rerouteNo="0" devices="tripinfo_down_53" vType="passenger" speedFactor="1.10" vaporized=""/>
    <tripinfo id="down_55" depart="103.00" departLane="54o_0" departPos="5.10" departSpeed="0.00" departDelay="2.00" arrival="194.00" arrivalLane="53i_0" arrivalPos="10.00" arrivalSpeed="11.57" duration="91.00" routeLength="1015.10" waitingTime="0.00" waitingCount="0" stopTime="0.00" timeLoss="14.69" rerouteNo="0" devices="tripinfo_down_55" vType="passenger" speedFactor="1.00" vaporized=""/>
    <tripinfo id="up_56" depart="103.00" departLane="53o_0" departPos="5.10" departSpeed="0.00" departDelay="0.00" arrival="199.00" arrivalLane="54i_0" arrivalPos="10.00" arrivalSpeed="10.25" duration="96.00" routeLength="1015.10" waitingTime="0.00" waitingCount="0" stopTime="0.00" timeLoss="14.91" rerouteNo="0" devices="tripinfo_up_56" vType="passenger" speedFactor="0.90" vaporized=""/>
    <tripinfo id="up_58" depart="108.00" departLane="53o_0" departPos="5.10" departSpeed="0.00" departDelay="4.00" arrival="201.00" arrivalLane="54i_0" arrivalPos="10.00" arrivalSpeed="10.75" duration="93.00" routeLength="1015.10" waitingTime="0.00" waitingCount="0" stopTime="0.00" timeLoss="17.78" rerouteNo="0" devices="tripinfo_up_58" vType="passenger" speedFactor="1.02" vaporized=""/>
    <tripinfo id="up_59" depart="113.00" departLane="53o_0" departPos="5.10" departSpeed="0.00" departDelay="7.00" arrival="205.00" arrivalLane="54i_0" arrivalPos="10.00" arrivalSpeed="10.99" duration="92.00" routeLength="1015.10" waitingTime="0.00" waitingCount="0" stopTime="0.00" timeLoss="14.43" rerouteNo="0" devices="tripinfo_up_59" vType="passenger" speedFactor="0.97" vaporized=""/>
    <tripinfo id="up_61" depart="118.00" departLane="53o_0" departPos="5.10" departSpeed="0.00" departDelay="10.00" arrival="207.00" arrivalLane="54i_0" arrivalPos="10.00" arrivalSpeed="11.44" duration="89.00" routeLength="1015.10" waitingTime="0.00" waitingCount="0" stopTime="0.00" timeLoss="17.41" rerouteNo="0" devices="tripinfo_up_61" vType="passenger" speedFactor="1.12" vaporized=""/>
    <tripinfo id="right_11" depart="23.00" departLane="51o_0" departPos="5.10" departSpeed="0.00" departDelay="1.00" arrival="220.00" arrivalLane="52i_0" arrivalPos="10.00" arrivalSpeed="11.92" duration="197.00" routeLength="1015.10" waitingTime="86.00" waitingCount="2" stopTime="0.00" timeLoss="122.10" rerouteNo="0" devices="tripinfo_right_11" vType="passenger" speedFactor="1.03" vaporized=""/>
    <tripinfo id="left_12" depart="22.00" departLane="52o_0" departPos="5.10" departSpeed="0.00" departDelay="0.00" arrival="221.00" arrivalLane="51i_0" arrivalPos="10.00" arrivalSpeed="12.19" duration="199.00" routeLength="1015.10" waitingTime="89.00" waitingCount="2" stopTime="0.00" timeLoss="124.97" rerouteNo="0" devices="tripinfo_left_12" vType="passenger" speedFactor="1.05" vaporized=""/>
    <tripinfo id="right_14" depart="28.00" departLane="51o_0" departPos="5.10" departSpeed="0.00" departDelay="3.00" arrival="224.00" arrivalLane="52i_0" arrivalPos="10.00" arrivalSpeed="11.48" duration="196.00" routeLength="1015.10" waitingTime="82.00" waitingCount="1" stopTime="0.00" timeLoss="119.09" rerouteNo="0" devices="tripinfo_right_14" vType="passenger" speedFactor="0.99" vaporized=""/>
    <tripinfo id="left_15" depart="28.00" departLane="52o_0" departPos="5.10" departSpeed="0.00" departDelay="0.00" arrival="228.00" arrivalLane="51i_0" arrivalPos="10.00" arrivalSpeed="10.81" duration="200.00" routeLength="1015.10" waitingTime="83.00" waitingCount="1" stopTime="0.00" timeLoss="119.99" rerouteNo="0" devices="tripinfo_left_15" vType="passenger" speedFactor="0.93" vaporized=""/>
    <tripinfo id="right_16" depart="33.00" departLane="51o_0" departPos="5.10" departSpeed="0.00" departDelay="2.00" arrival="231.00" arrivalLane="52i_0" arrivalPos="10.00" arrivalSpeed="9.99" duration="198.00" routeLength="1015.10" waitingTime="82.00" waitingCount="1" stopTime="0.00" timeLoss="115.30" rerouteNo="0" devices="tripinfo_right_16" vType="passenger" speedFactor="0.88" vaporized=""/>
    <tripinfo id="left_23" depart="41.00" departLane="52o_0" departPos="5.10" departSpeed="0.00" departDelay="0.00" arrival="231.00" arrivalLane="51i_0" arrivalPos="10.00" arrivalSpeed="10.20" duration="190.00" routeLength="1015.10" waitingTime="81.00" waitingCount="1" stopTime="0.00" timeLoss="108.53" rerouteNo="0" devices="tripinfo_left_23" vType="passenger" speedFactor="0.89" vaporized=""/>
    <tripinfo id="right_20" depart="38.00" departLane="51o_0" departPos="5.10" departSpeed="0.00" departDelay="4.00" arrival="232.00" arrivalLane="52i_0" arrivalPos="10.00" arrivalSpeed="10.16" duration="194.00" routeLength="1015.10" waitingTime="82.00" waitingCount="2" stopTime="0.00" timeLoss="118.81" rerouteNo="0" devices="tripinfo_right_20" vType="passenger" speedFactor="1.02" vaporized=""/>
    <tripinfo id="right_21" depart="44.00" departLane="51o_0" departPos="5.10" departSpeed="0.00" departDelay="7.00" arrival="234.00" arrivalLane="52i_0" arrivalPos="10.00" arrivalSpeed="10.92" duration="190.00" routeLength="1015.10" waitingTime="80.00" waitingCount="1" stopTime="0.00" timeLoss="114.47" rerouteNo="0" devices="tripinfo_right_21" vType="passenger" speedFactor="1.01" vaporized=""/>
    <tripinfo id="left_25" depart="46.00" departLane="52o_0" departPos="5.10" departSpeed="0.00" departDelay="4.00" arrival="235.00" arrivalLane="51i_0" arrivalPos="10.00" arrivalSpeed="10.03" duration="189.00" routeLength="1015.10" waitingTime="77.00" waitingCount="1" stopTime="0.00" timeLoss="105.77" rerouteNo="0" devices="tripinfo_left_25" vType="passenger" speedFactor="0.87" vaporized=""/>
    <tripinfo id="right_22" depart="49.00" departLane="51o_0" departPos="5.10" departSpeed="0.00" departDelay="9.00" arrival="236.00" arrivalLane="52i_0" arrivalPos="10.00" arrivalSpeed="11.15" duration="187.00" routeLength="1015.10" waitingTime="78.00" waitingCount="1" stopTime="0.00" timeLoss="109.56" rerouteNo="0" devices="tripinfo_right_22" vType="passenger" speedFactor="0.98" vaporized=""/>
    <tripinfo id="left_29" depart="51.00" departLane="52o_0" departPos="5.10" departSpeed="0.00" departDelay="2.00" arrival="236.00" arrivalLane="51i_0" arrivalPos="10.00" arrivalSpeed="10.37" duration="185.00" routeLength="1015.10" waitingTime="74.00" waitingCount="1" stopTime="0.00" timeLoss="105.84" rerouteNo="0" devices="tripinfo_left_29" vType="passenger" speedFactor="0.93" vaporized=""/>
    <tripinfo id="left_37" depart="67.00" departLane="52o_0" departPos="5.10" departSpeed="0.00" departDelay="0.00" arrival="238.00" arrivalLane="51i_0" arrivalPos="10.00" arrivalSpeed="10.54" duration="171.00" routeLength="1015.10" waitingTime="59.00" waitingCount="1" stopTime="0.00" timeLoss="101.80" rerouteNo="0" devices="tripinfo_left_37" vType="passenger" speedFactor="1.18" vaporized=""/>
    <tripinfo id="left_40" depart="74.00" departLane="52o_0" departPos="5.10" departSpeed="0.00" departDelay="0.00" arrival="240.00" arrivalLane="51i_0" arrivalPos="10.00" arrivalSpeed="11.11" duration="166.00" routeLength="1015.10" waitingTime="56.00" waitingCount="1" stopTime="0.00" timeLoss="90.97" rerouteNo="0" devices="tripinfo_left_40" vType="passenger" speedFactor="1.03" vaporized=""/>
    <tripinfo id="left_43" depart="79.00" departLane="52o_0" departPos="5.10" departSpeed="0.00" departDelay="3.00" arrival="242.00" arrivalLane="51i_0" arrivalPos="10.00" arrivalSpeed="11.82" duration="163.00" routeLength="1015.10" waitingTime="52.00" waitingCount="1" stopTime="0.00" timeLoss="88.10" rerouteNo="0" devices="tripinfo_left_43" vType="passenger" speedFactor="1.04" vaporized=""/>
    <tripinfo id="right_24" depart="54.00" departLane="51o_0" departPos="5.10" departSpeed="0.00" departDelay="12.00" arrival="243.00" arrivalLane="52i_0" arrivalPos="10.00" arrivalSpeed="9.53" duration="189.00" routeLength="1015.10" waitingTime="73.00" waitingCount="1" stopTime="0.00" timeLoss="102.18" rerouteNo="0" devices="tripinfo_right_24" vType="passenger" speedFactor="0.83" vaporized=""/>
    <tripinfo id="left_45" depart="84.00" departLane="52o_0" departPos="5.10" departSpeed="0.00" departDelay="6.00" arrival="243.00" arrivalLane="51i_0" arrivalPos="10.00" arrivalSpeed="11.38" duration="159.00" routeLength="1015.10" waitingTime="49.00" waitingCount="1" stopTime="0.00" timeLoss="86.61" rerouteNo="0" devices="tripinfo_left_45" vType="passenger" speedFactor="1.09" vaporized=""/>
    <tripinfo id="right_26" depart="59.00" departLane="51o_0" departPos="5.10" departSpeed="0.00" departDelay="15.00" arrival="245.00" arrivalLane="52i_0" arrivalPos="10.00" arrivalSpeed="9.97" duration="186.00" routeLength="1015.10" waitingTime="71.00" waitingCount="1" stopTime="0.00" timeLoss="105.66" rerouteNo="0" devices="tripinfo_right_26" vType="passenger" speedFactor="0.92" vaporized=""/>
    <tripinfo id="left_47" depart="89.00" departLane="52o_0" departPos="5.10" departSpeed="0.00" departDelay="6.00" arrival="246.00" arrivalLane="51i_0" arrivalPos="10.00" arrivalSpeed="10.25" duration="157.00" routeLength="1015.10" waitingTime="45.00" waitingCount="1" stopTime="0.00" timeLoss="75.33" rerouteNo="0" devices="tripinfo_left_47" vType="passenger" speedFactor="0.90" vaporized=""/>
    <tripinfo id="right_27" depart="64.00" departLane="51o_0" departPos="5.10" departSpeed="0.00" departDelay="17.00" arrival="247.00" arrivalLane="52i_0" arrivalPos="10.00" arrivalSpeed="10.77" duration="183.00" routeLength="1015.10" waitingTime="68.00" waitingCount="1" stopTime="0.00" timeLoss="104.12" rerouteNo="0" devices="tripinfo_right_27" vType="passenger" speedFactor="0.95" vaporized=""/>
    <tripinfo id="right_28" depart="69.00" departLane="51o_0" departPos="5.10" departSpeed="0.00" departDelay="21.00" arrival="248.00" arrivalLane="52i_0" arrivalPos="10.00" arrivalSpeed="10.64" duration="179.00" routeLength="1015.10" waitingTime="64.00" waitingCount="1" stopTime="0.00" timeLoss="108.19" rerouteNo="0" devices="tripinfo_right_28" vType="passenger" speedFactor="1.13" vaporized=""/>
    <tripinfo id="right_31" depart="74.00" departLane="51o_0" departPos="5.10" departSpeed="0.00" departDelay="18.00" arrival="250.00" arrivalLane="52i_0" arrivalPos="10.00" arrivalSpeed="11.05" duration="176.00" routeLength="1015.10" waitingTime="60.00" waitingCount="1" stopTime="0.00" timeLoss="105.95" rerouteNo="0" devices="tripinfo_right_31" vType="passenger" speedFactor="1.15" vaporized=""/>
    <tripinfo id="left_50" depart="94.00" departLane="52o_0" departPos="5.10" departSpeed="0.00" departDelay="6.00" arrival="251.00" arrivalLane="51i_0" arrivalPos="10.00" arrivalSpeed="9.63" duration="157.00" routeLength="1015.10" waitingTime="41.00" waitingCount="1" stopTime="0.00" timeLoss="72.54" rerouteNo="0" devices="tripinfo_left_50" vType="passenger" speedFactor="0.85" vaporized=""/>
    <tripinfo id="right_32" depart="80.00" departLane="51o_0" departPos="5.10" departSpeed="0.00" departDelay="23.00" arrival="252.00" arrivalLane="52i_0" arrivalPos="10.00" arrivalSpeed="11.73" duration="172.00" routeLength="1015.10" waitingTime="56.00" waitingCount="1" stopTime="0.00" timeLoss="95.81" rerouteNo="0" devices="tripinfo_right_32" vType="passenger" speedFactor="1.01" vaporized=""/>
    <tripinfo id="left_54" depart="101.00" departLane="52o_0" departPos="5.10" departSpeed="0.00" departDelay="0.00" arrival="252.00" arrivalLane="51i_0" arrivalPos="10.00" arrivalSpeed="9.80" duration="151.00" routeLength="1015.10" waitingTime="34.00" waitingCount="1" stopTime="0.00" timeLoss="75.29" rerouteNo="0" devices="tripinfo_left_54" vType="passenger" speedFactor="1.00" vaporized=""/>
    <tripinfo id="right_34" depart="85.00" departLane="51o_0" departPos="5.10" departSpeed="0.00" departDelay="24.00" arrival="254.00" arrivalLane="52i_0" arrivalPos="10.00" arrivalSpeed="11.08" duration="169.00" routeLength="1015.10" waitingTime="53.00" waitingCount="1" stopTime="0.00" timeLoss="92.22" rerouteNo="0" devices="tripinfo_right_34" vType="passenger" speedFactor="0.99" vaporized=""/>
    <tripinfo id="left_64" depart="116.00" departLane="52o_0" departPos="5.10" departSpeed="0.00" departDelay="0.00" arrival="254.00" arrivalLane="51i_0" arrivalPos="10.00" arrivalSpeed="9.98" duration="138.00" routeLength="1015.10" waitingTime="24.00" waitingCount="1" stopTime="0.00" timeLoss="59.01" rerouteNo="0" devices="tripinfo_left_64" vType="passenger" speedFactor="0.94" vaporized=""/>
    <tripinfo id="right_35" depart="90.00" departLane="51o_0" departPos="5.10" departSpeed="0.00" departDelay="27.00" arrival="255.00" arrivalLane="52i_0" arrivalPos="10.00" arrivalSpeed="11.05" duration="165.00" routeLength="1015.10" waitingTime="50.00" waitingCount="1" stopTime="0.00" timeLoss="89.71" rerouteNo="0" devices="tripinfo_right_35" vType="passenger" speedFactor="1.02" vaporized=""/>
    <tripinfo id="left_65" depart="123.00" departLane="52o_0" departPos="5.10" departSpeed="0.00" departDelay="6.00" arrival="256.00" arrivalLane="51i_0" arrivalPos="10.00" arrivalSpeed="10.06" duration="133.00" routeLength="1015.10" waitingTime="17.00" waitingCount="1" stopTime="0.00" timeLoss="50.87" rerouteNo="0" devices="tripinfo_left_65" vType="passenger" speedFactor="0.88" vaporized=""/>
    <tripinfo id="right_36" depart="95.00" departLane="51o_0" departPos="5.10" departSpeed="0.00" departDelay="31.00" arrival="257.00" arrivalLane="52i_0" arrivalPos="10.00" arrivalSpeed="11.46" duration="162.00" routeLength="1015.10" waitingTime="46.00" waitingCount="1" stopTime="0.00" timeLoss="84.72" rerouteNo="0" devices="tripinfo_right_36" vType="passenger" speedFactor="0.97" vaporized=""/>
    <tripinfo id="left_66" depart="128.00" departLane="52o_0" departPos="5.10" departSpeed="0.00" departDelay="8.00" arrival="258.00" arrivalLane="51i_0" arrivalPos="10.00" arrivalSpeed="10.40" duration="130.00" routeLength="1015.10" waitingTime="14.00" waitingCount="1" stopTime="0.00" timeLoss="49.13" rerouteNo="0" devices="tripinfo_left_66" vType="passenger" speedFactor="0.91" vaporized=""/>
    <tripinfo id="right_38" depart="101.00" departLane="51o_0" departPos="5.10" departSpeed="0.00" departDelay="32.00" arrival="259.00" arrivalLane="52i_0" arrivalPos="10.00" arrivalSpeed="12.17" duration="158.00" routeLength="1015.10" waitingTime="42.00" waitingCount="1" stopTime="0.00" timeLoss="85.95" rerouteNo="0" devices="tripinfo_right_38" vType="passenger" speedFactor="1.10" vaporized=""/>
    <tripinfo id="left_67" depart="134.00" departLane="52o_0" departPos="5.10" departSpeed="0.00" departDelay="11.00" arrival="260.00" arrivalLane="51i_0" arrivalPos="10.00" arrivalSpeed="10.23" duration="126.00" routeLength="1015.10" waitingTime="10.00" waitingCount="1" stopTime="0.00" timeLoss="45.35" rerouteNo="0" devices="tripinfo_left_67" vType="passenger" speedFactor="0.91" vaporized=""/>
    <tripinfo id="right_42" depart="106.00" departLane="51o_0" departPos="5.10" departSpeed="0.00" departDelay="30.00" arrival="261.00" arrivalLane="52i_0" arrivalPos="10.00" arrivalSpeed="12.68" duration="155.00" routeLength="1015.10" waitingTime="38.00" waitingCount="1" stopTime="0.00" timeLoss="82.15" rerouteNo="0" devices="tripinfo_right_42" vType="passenger" speedFactor="1.09" vaporized=""/>
    <tripinfo id="right_44" depart="111.00" departLane="51o_0" departPos="5.10" departSpeed="0.00" departDelay="33.00" arrival="262.00" arrivalLane="52i_0" arrivalPos="10.00" arrivalSpeed="11.53" duration="151.00" routeLength="1015.10" waitingTime="34.00" waitingCount="1" stopTime="0.00" timeLoss="76.83" rerouteNo="0" devices="tripinfo_right_44" vType="passenger" speedFactor="1.04" vaporized=""/>
    <tripinfo id="left_68" depart="139.00" departLane="52o_0" departPos="5.10" departSpeed="0.00" departDelay="15.00" arrival="262.00" arrivalLane="51i_0" arrivalPos="10.00" arrivalSpeed="11.10" duration="123.00" routeLength="1015.10" waitingTime="4.00" waitingCount="1" stopTime="0.00" timeLoss="48.11" rerouteNo="0" devices="tripinfo_left_68" vType="passenger" speedFactor="1.04" vaporized=""/>
    <tripinfo id="left_69" depart="144.00" departLane="52o_0" departPos="5.10" departSpeed="0.00" departDelay="19.00" arrival="263.00" arrivalLane="51i_0" arrivalPos="10.00" arrivalSpeed="10.89" duration="119.00" routeLength="1015.10" waitingTime="3.00" waitingCount="1" stopTime="0.00" timeLoss="44.13" rerouteNo="0" devices="tripinfo_left_69" vType="passenger" speedFactor="1.02" vaporized=""/>
    <tripinfo id="right_46" depart="116.00" departLane="51o_0" departPos="5.10" departSpeed="0.00" departDelay="35.00" arrival="264.00" arrivalLane="52i_0" arrivalPos="10.00" arrivalSpeed="11.32" duration="148.00" routeLength="1015.10" waitingTime="32.00" waitingCount="1" stopTime="0.00" timeLoss="72.04" rerouteNo="0" devices="tripinfo_right_46" vType="passenger" speedFactor="1.00" vaporized=""/>
    <tripinfo id="left_72" depart="149.00" departLane="52o_0" departPos="5.10" departSpeed="0.00" departDelay="20.00" arrival="265.00" arrivalLane="51i_0" arrivalPos="10.00" arrivalSpeed="10.84" duration="116.00" routeLength="1015.10" waitingTime="0.00" waitingCount="0" stopTime="0.00" timeLoss="36.90" rerouteNo="0" devices="tripinfo_left_72" vType="passenger" speedFactor="0.94" vaporized=""/>
    <tripinfo id="right_48" depart="121.00" departLane="51o_0" departPos="5.10" departSpeed="0.00" departDelay="37.00" arrival="267.00" arrivalLane="52i_0" arrivalPos="10.00" arrivalSpeed="10.20" duration="146.00" routeLength="1015.10" waitingTime="29.00" waitingCount="1" stopTime="0.00" timeLoss="63.52" rerouteNo="0" devices="tripinfo_right_48" vType="passenger" speedFactor="0.88" vaporized=""/>
    <tripinfo id="left_75" depart="154.00" departLane="52o_0" departPos="5.10" departSpeed="0.00" departDelay="22.00" arrival="267.00" arrivalLane="51i_0" arrivalPos="10.00" arrivalSpeed="11.00" duration="113.00" routeLength="1015.10" waitingTime="0.00" waitingCount="0" stopTime="0.00" timeLoss="35.83" rerouteNo="0" devices="tripinfo_left_75" vType="passenger" speedFactor="0.98" vaporized=""/>
    <tripinfo id="right_51" depart="126.00" departLane="51o_0" departPos="5.10" departSpeed="0.00" departDelay="34.00" arrival="269.00" arrivalLane="52i_0" arrivalPos="10.00" arrivalSpeed="10.77" duration="143.00" routeLength="1015.10" waitingTime="24.00" waitingCount="1" stopTime="0.00" timeLoss="73.25" rerouteNo="0" devices="tripinfo_right_51" vType="passenger" speedFactor="1.17" vaporized=""/>
    <tripinfo id="left_78" depart="159.00" departLane="52o_0" departPos="5.10" departSpeed="0.00" departDelay="22.00" arrival="269.00" arrivalLane="51i_0" arrivalPos="10.00" arrivalSpeed="11.58" duration="110.00" routeLength="1015.10" waitingTime="0.00" waitingCount="0" stopTime="0.00" timeLoss="33.61" rerouteNo="0" devices="tripinfo_left_78" vType="passenger" speedFactor="1.01" vaporized=""/>
    <tripinfo id="left_81" depart="165.00" departLane="52o_0" departPos="5.10" departSpeed="0.00" departDelay="18.00" arrival="270.00" arrivalLane="51i_0" arrivalPos="10.00" arrivalSpeed="11.49" duration="105.00" routeLength="1015.10" waitingTime="0.00" waitingCount="0" stopTime="0.00" timeLoss="29.02" rerouteNo="0" devices="tripinfo_left_81" vType="passenger" speedFactor="1.00" vaporized=""/>
    <tripinfo id="right_57" depart="133.00" departLane="51o_0" departPos="5.10" departSpeed="0.00" departDelay="29.00" arrival="271.00" arrivalLane="52i_0" arrivalPos="10.00" arrivalSpeed="11.38" duration="138.00" routeLength="1015.10" waitingTime="20.00" waitingCount="1" stopTime="0.00" timeLoss="67.17" rerouteNo="0" devices="tripinfo_right_57" vType="passenger" speedFactor="1.14" vaporized=""/>
    <tripinfo id="right_60" depart="138.00" departLane="51o_0" departPos="5.10" departSpeed="0.00" departDelay="30.00" arrival="272.00" arrivalLane="52i_0" arrivalPos="10.00" arrivalSpeed="11.17" duration="134.00" routeLength="1015.10" waitingTime="17.00" waitingCount="1" stopTime="0.00" timeLoss="61.70" rerouteNo="0" devices="tripinfo_right_60" vType="passenger" speedFactor="1.08" vaporized=""/>
    <tripinfo id="left_86" depart="170.00" departLane="52o_0" departPos="5.10" departSpeed="0.00" departDelay="15.00" arrival="272.00" arrivalLane="51i_0" arrivalPos="10.00" arrivalSpeed="11.67" duration="102.00" routeLength="1015.10" waitingTime="0.00" waitingCount="0" stopTime="0.00" timeLoss="26.00" rerouteNo="0" devices="tripinfo_left_86" vType="passenger" speedFactor="1.00" vaporized=""/>