<?xml version="1.0" encoding="UTF-8"?>

<!-- generated on Sun Oct 13 23:57:23 2019 by Eclipse SUMO GUI Version 1.2.0
<configuration xmlns:xsi="http://www.w3.org/2001/XMLSchema-instance" xsi:noNamespaceSchemaLocation="http://sumo.dlr.de/xsd/sumoConfiguration.xsd">

    <input>
        <net-file value="data/cross.net.xml"/>
        <route-files value="data/cross.rou.xml"/>
        <additional-files value="data/cross.tlsp.xml"/>
    </input>

    <output>
        <tripinfo-output value="tripinfo_isolated2.xml"/>
    </output>

    <time>
        <begin value="0"/>
        <step-length value="1"/>
    </time>

    <report>
        <verbose value="true"/>
        <no-step-log value="true"/>
    </report>

    <traci_server>
        <remote-port value="55889"/>
    </traci_server>

    <gui_only>
        <tracker-interval value="1"/>
    </gui_only>

</configuration>
-->

<tripinfos xmlns:xsi="http://www.w3.org/2001/XMLSchema-instance" xsi:noNamespaceSchemaLocation="http://sumo.dlr.de/xsd/tripinfo_file.xsd">
    <tripinfo id="left_0" depart="0.00" departLane="52o_0" departPos="5.10" departSpeed="0.00" departDelay="0.00" arrival="88.00" arrivalLane="51i_0" arrivalPos="10.00" arrivalSpeed="12.13" duration="88.00" routeLength="1015.10" waitingTime="0.00" waitingCount="0" stopTime="0.00" timeLoss="14.63" rerouteNo="0" devices="tripinfo_left_0" vType="passenger" speedFactor="1.06" vaporized=""/>
    <tripinfo id="right_2" depart="3.00" departLane="51o_0" departPos="5.10" departSpeed="0.00" departDelay="0.00" arrival="94.00" arrivalLane="52i_0" arrivalPos="10.00" arrivalSpeed="11.37" duration="91.00" routeLength="1015.10" waitingTime="0.00" waitingCount="0" stopTime="0.00" timeLoss="14.95" rerouteNo="0" devices="tripinfo_right_2" vType="passenger" speedFactor="1.01" vaporized=""/>
    <tripinfo id="right_4" depart="8.00" departLane="51o_0" departPos="5.10" departSpeed="0.00" departDelay="4.00" arrival="98.00" arrivalLane="52i_0" arrivalPos="10.00" arrivalSpeed="11.61" duration="90.00" routeLength="1015.10" waitingTime="0.00" waitingCount="0" stopTime="0.00" timeLoss="14.97" rerouteNo="0" devices="tripinfo_right_4" vType="passenger" speedFactor="1.03" vaporized=""/>
    <tripinfo id="left_1" depart="5.00" departLane="52o_0" departPos="5.10" departSpeed="0.00" departDelay="3.00" arrival="99.00" arrivalLane="51i_0" arrivalPos="10.00" arrivalSpeed="10.77" duration="94.00" routeLength="1015.10" waitingTime="0.00" waitingCount="0" stopTime="0.00" timeLoss="14.95" rerouteNo="0" devices="tripinfo_left_1" vType="passenger" speedFactor="0.94" vaporized=""/>
    <tripinfo id="left_3" depart="10.00" departLane="52o_0" departPos="5.10" departSpeed="0.00" departDelay="7.00" arrival="101.00" arrivalLane="51i_0" arrivalPos="10.00" arrivalSpeed="11.32" duration="91.00" routeLength="1015.10" waitingTime="0.00" waitingCount="0" stopTime="0.00" timeLoss="18.11" rerouteNo="0" devices="tripinfo_left_3" vType="passenger" speedFactor="1.08" vaporized=""/>
    <tripinfo id="right_8" depart="13.00" departLane="51o_0" departPos="5.10" departSpeed="0.00" departDelay="2.00" arrival="107.00" arrivalLane="52i_0" arrivalPos="10.00" arrivalSpeed="10.82" duration="94.00" routeLength="1015.10" waitingTime="0.00" waitingCount="0" stopTime="0.00" timeLoss="14.92" rerouteNo="0" devices="tripinfo_right_8" vType="passenger" speedFactor="0.94" vaporized=""/>
    <tripinfo id="left_7" depart="15.00" departLane="52o_0" departPos="5.10" departSpeed="0.00" departDelay="5.00" arrival="113.00" arrivalLane="51i_0" arrivalPos="10.00" arrivalSpeed="10.28" duration="98.00" routeLength="1015.10" waitingTime="0.00" waitingCount="0" stopTime="0.00" timeLoss="15.34" rerouteNo="0" devices="tripinfo_left_7" vType="passenger" speedFactor="0.89" vaporized=""/>
    <tripinfo id="down_6" depart="6.00" departLane="54o_0" departPos="5.10" departSpeed="0.00" departDelay="0.00" arrival="117.00" arrivalLane="53i_0" arrivalPos="10.00" arrivalSpeed="12.08" duration="111.00" routeLength="1015.10" waitingTime="11.00" waitingCount="1" stopTime="0.00" timeLoss="37.18" rerouteNo="0" devices="tripinfo_down_6" vType="passenger" speedFactor="1.05" vaporized=""/>
    <tripinfo id="down_13" depart="23.00" departLane="54o_0" departPos="5.10" departSpeed="0.00" departDelay="0.00" arrival="119.00" arrivalLane="53i_0" arrivalPos="10.00" arrivalSpeed="12.86" duration="96.00" routeLength="1015.10" waitingTime="0.00" waitingCount="0" stopTime="0.00" timeLoss="24.76" rerouteNo="0" devices="tripinfo_down_13" vType="passenger" speedFactor="1.12" vaporized=""/>
    <tripinfo id="down_17" depart="31.00" departLane="54o_0" departPos="5.10" departSpeed="0.00" departDelay="0.00" arrival="126.00" arrivalLane="53i_0" arrivalPos="10.00" arrivalSpeed="10.85" duration="95.00" routeLength="1015.10" waitingTime="0.00" waitingCount="0" stopTime="0.00" timeLoss="15.45" rerouteNo="0" devices="tripinfo_down_17" vType="passenger" speedFactor="0.94" vaporized=""/>
    <tripinfo id="down_19" depart="36.00" departLane="54o_0" departPos="5.10" departSpeed="0.00" departDelay="3.00" arrival="127.00" arrivalLane="53i_0" arrivalPos="10.00" arrivalSpeed="11.35" duration="91.00" routeLength="1015.10" waitingTime="0.00" waitingCount="0" stopTime="0.00" timeLoss="21.07" rerouteNo="0" devices="tripinfo_down_19" vType="passenger" speedFactor="1.16" vaporized=""/>
    <tripinfo id="up_5" depart="4.00" departLane="53o_0" departPos="5.10" departSpeed="0.00" departDelay="0.00" arrival="128.00" arrivalLane="54i_0" arrivalPos="10.00" arrivalSpeed="9.75" duration="124.00" routeLength="1015.10" waitingTime="12.00" waitingCount="1" stopTime="0.00" timeLoss="37.67" rerouteNo="0" devices="tripinfo_up_5" vType="passenger" speedFactor="0.83" vaporized=""/>
    <tripinfo id="up_10" depart="16.00" departLane="53o_0" departPos="5.10" departSpeed="0.00" departDelay="0.00" arrival="130.00" arrivalLane="54i_0" arrivalPos="10.00" arrivalSpeed="10.68" duration="114.00" routeLength="1015.10" waitingTime="2.00" waitingCount="1" stopTime="0.00" timeLoss="41.35" rerouteNo="0" devices="tripinfo_up_10" vType="passenger" speedFactor="1.09" vaporized=""/>
    <tripinfo id="up_18" depart="32.00" departLane="53o_0" departPos="5.10" departSpeed="0.00" departDelay="0.00" arrival="132.00" arrivalLane="54i_0" arrivalPos="10.00" arrivalSpeed="10.78" duration="100.00" routeLength="1015.10" waitingTime="0.00" waitingCount="0" stopTime="0.00" timeLoss="20.31" rerouteNo="0" devices="tripinfo_up_18" vType="passenger" speedFactor="0.94" vaporized=""/>
    <tripinfo id="up_30" depart="51.00" departLane="53o_0" departPos="5.10" departSpeed="0.00" departDelay="0.00" arrival="137.00" arrivalLane="54i_0" arrivalPos="10.00" arrivalSpeed="13.13" duration="86.00" routeLength="1015.10" waitingTime="0.00" waitingCount="0" stopTime="0.00" timeLoss="16.40" rerouteNo="0" devices="tripinfo_up_30" vType="passenger" speedFactor="1.18" vaporized=""/>
    <tripinfo id="down_33" depart="57.00" departLane="54o_0" departPos="5.10" departSpeed="0.00" departDelay="0.00" arrival="140.00" arrivalLane="53i_0" arrivalPos="10.00" arrivalSpeed="12.69" duration="83.00" routeLength="1015.10" waitingTime="0.00" waitingCount="0" stopTime="0.00" timeLoss="13.64" rerouteNo="0" devices="tripinfo_down_33" vType="passenger" speedFactor="1.17" vaporized=""/>
    <tripinfo id="down_39" depart="72.00" departLane="54o_0" departPos="5.10" departSpeed="0.00" departDelay="0.00" arrival="169.00" arrivalLane="53i_0" arrivalPos="10.00" arrivalSpeed="10.36" duration="97.00" routeLength="1015.10" waitingTime="0.00" waitingCount="0" stopTime="0.00" timeLoss="16.04" rerouteNo="0" devices="tripinfo_down_39" vType="passenger" speedFactor="0.90" vaporized=""/>
    <tripinfo id="down_41" depart="77.00" departLane="54o_0" departPos="5.10" departSpeed="0.00" departDelay="3.00" arrival="171.00" arrivalLane="53i_0" arrivalPos="10.00" arrivalSpeed="10.84" duration="94.00" routeLength="1015.10" waitingTime="0.00" waitingCount="0" stopTime="0.00" timeLoss="15.88" rerouteNo="0" devices="tripinfo_down_41" vType="passenger" speedFactor="0.96" vaporized=""/>
    <tripinfo id="up_52" depart="93.00" departLane="53o_0" departPos="5.10" departSpeed="0.00" departDelay="0.00" arrival="183.00" arrivalLane="54i_0" arrivalPos="10.00" arrivalSpeed="11.58" duration="90.00" routeLength="1015.10" waitingTime="0.00" waitingCount="0" stopTime="0.00" timeLoss="14.71" rerouteNo="0" devices="tripinfo_up_52" vType="passenger" speedFactor="1.02" vaporized=""/>
    <tripinfo id="down_49" depart="85.00" departLane="54o_0" departPos="5.10" departSpeed="0.00" departDelay="0.00" arrival="186.00" arrivalLane="53i_0" arrivalPos="10.00" arrivalSpeed="9.84" duration="101.00" routeLength="1015.10" waitingTime="0.00" waitingCount="0" stopTime="0.00" timeLoss="16.02" rerouteNo="0" devices="tripinfo_down_49" vType="passenger" speedFactor="0.85" vaporized=""/>
    <tripinfo id="left_12" depart="22.00" departLane="52o_0" departPos="5.10" departSpeed="0.00" departDelay="0.00" arrival="197.00" arrivalLane="51i_0" arrivalPos="10.00" arrivalSpeed="11.55" duration="175.00" routeLength="1015.10" waitingTime="75.00" waitingCount="1" stopTime="0.00" timeLoss="101.08" rerouteNo="0" devices="tripinfo_left_12" vType="passenger" speedFactor="1.05" vaporized=""/>
    <tripinfo id="left_15" depart="28.00" departLane="52o_0" departPos="5.10" departSpeed="0.00" departDelay="0.00" arrival="205.00" arrivalLane="51i_0" arrivalPos="10.00" arrivalSpeed="10.69" duration="177.00" routeLength="1015.10" waitingTime="70.00" waitingCount="1" stopTime="0.00" timeLoss="97.07" rerouteNo="0" devices="tripinfo_left_15" vType="passenger" speedFactor="0.93" vaporized=""/>
    <tripinfo id="right_9" depart="18.00" departLane="51o_0" departPos="5.10" departSpeed="0.00" departDelay="4.00" arrival="206.00" arrivalLane="52i_0" arrivalPos="10.00" arrivalSpeed="10.18" duration="188.00" routeLength="1015.10" waitingTime="80.00" waitingCount="1" stopTime="0.00" timeLoss="104.67" rerouteNo="0" devices="tripinfo_right_9" vType="passenger" speedFactor="0.86" vaporized=""/>
    <tripinfo id="right_11" depart="23.00" departLane="51o_0" departPos="5.10" departSpeed="0.00" departDelay="1.00" arrival="208.00" arrivalLane="52i_0" arrivalPos="10.00" arrivalSpeed="10.92" duration="185.00" routeLength="1015.10" waitingTime="75.00" waitingCount="1" stopTime="0.00" timeLoss="110.08" rerouteNo="0" devices="tripinfo_right_11" vType="passenger" speedFactor="1.03" vaporized=""/>
    <tripinfo id="left_23" depart="41.00" departLane="52o_0" departPos="5.10" departSpeed="0.00" departDelay="0.00" arrival="209.00" arrivalLane="51i_0" arrivalPos="10.00" arrivalSpeed="10.25" duration="168.00" routeLength="1015.10" waitingTime="59.00" waitingCount="1" stopTime="0.00" timeLoss="86.69" rerouteNo="0" devices="tripinfo_left_23" vType="passenger" speedFactor="0.89" vaporized=""/>
    <tripinfo id="right_14" depart="28.00" departLane="51o_0" departPos="5.10" departSpeed="0.00" departDelay="3.00" arrival="210.00" arrivalLane="52i_0" arrivalPos="10.00" arrivalSpeed="11.36" duration="182.00" routeLength="1015.10" waitingTime="72.00" waitingCount="1" stopTime="0.00" timeLoss="105.33" rerouteNo="0" devices="tripinfo_right_14" vType="passenger" speedFactor="0.99" vaporized=""/>
    <tripinfo id="right_16" depart="33.00" departLane="51o_0" departPos="5.10" departSpeed="0.00" departDelay="2.00" arrival="212.00" arrivalLane="52i_0" arrivalPos="10.00" arrivalSpeed="10.04" duration="179.00" routeLength="1015.10" waitingTime="71.00" waitingCount="1" stopTime="0.00" timeLoss="96.47" rerouteNo="0" devices="tripinfo_right_16" vType="passenger" speedFactor="0.88" vaporized=""/>
    <tripinfo id="left_25" depart="46.00" departLane="52o_0" departPos="5.10" departSpeed="0.00" departDelay="4.00" arrival="212.00" arrivalLane="51i_0" arrivalPos="10.00" arrivalSpeed="10.37" duration="166.00" routeLength="1015.10" waitingTime="55.00" waitingCount="1" stopTime="0.00" timeLoss="83.48" rerouteNo="0" devices="tripinfo_left_25" vType="passenger" speedFactor="0.87" vaporized=""/>
    <tripinfo id="right_20" depart="38.00" departLane="51o_0" departPos="5.10" departSpeed="0.00" departDelay="4.00" arrival="214.00" arrivalLane="52i_0" arrivalPos="10.00" arrivalSpeed="10.73" duration="176.00" routeLength="1015.10" waitingTime="67.00" waitingCount="2" stopTime="0.00" timeLoss="100.30" rerouteNo="0" devices="tripinfo_right_20" vType="passenger" speedFactor="1.02" vaporized=""/>
    <tripinfo id="left_29" depart="51.00" departLane="52o_0" departPos="5.10" departSpeed="0.00" departDelay="2.00" arrival="214.00" arrivalLane="51i_0" arrivalPos="10.00" arrivalSpeed="10.81" duration="163.00" routeLength="1015.10" waitingTime="52.00" waitingCount="1" stopTime="0.00" timeLoss="83.43" rerouteNo="0" devices="tripinfo_left_29" vType="passenger" speedFactor="0.93" vaporized=""/>
    <tripinfo id="right_21" depart="44.00" departLane="51o_0" departPos="5.10" departSpeed="0.00" departDelay="7.00" arrival="215.00" arrivalLane="52i_0" arrivalPos="10.00" arrivalSpeed="10.53" duration="171.00" routeLength="1015.10" waitingTime="60.00" waitingCount="1" stopTime="0.00" timeLoss="95.32" rerouteNo="0" devices="tripinfo_right_21" vType="passenger" speedFactor="1.01" vaporized=""/>
    <tripinfo id="left_37" depart="67.00" departLane="52o_0" departPos="5.10" departSpeed="0.00" departDelay="0.00" arrival="216.00" arrivalLane="51i_0" arrivalPos="10.00" arrivalSpeed="11.23" duration="149.00" routeLength="1015.10" waitingTime="37.00" waitingCount="1" stopTime="0.00" timeLoss="79.45" rerouteNo="0" devices="tripinfo_left_37" vType="passenger" speedFactor="1.18" vaporized=""/>
    <tripinfo id="right_22" depart="49.00" departLane="51o_0" departPos="5.10" departSpeed="0.00" departDelay="9.00" arrival="217.00" arrivalLane="52i_0" arrivalPos="10.00" arrivalSpeed="10.77" duration="168.00" routeLength="1015.10" waitingTime="57.00" waitingCount="1" stopTime="0.00" timeLoss="90.89" rerouteNo="0" devices="tripinfo_right_22" vType="passenger" speedFactor="0.98" vaporized=""/>
    <tripinfo id="left_40" depart="74.00" departLane="52o_0" departPos="5.10" departSpeed="0.00" departDelay="0.00" arrival="217.00" arrivalLane="51i_0" arrivalPos="10.00" arrivalSpeed="11.23" duration="143.00" routeLength="1015.10" waitingTime="33.00" waitingCount="1" stopTime="0.00" timeLoss="68.37" rerouteNo="0" devices="tripinfo_left_40" vType="passenger" speedFactor="1.03" vaporized=""/>
    <tripinfo id="left_43" depart="79.00" departLane="52o_0" departPos="5.10" departSpeed="0.00" departDelay="3.00" arrival="219.00" arrivalLane="51i_0" arrivalPos="10.00" arrivalSpeed="12.03" duration="140.00" routeLength="1015.10" waitingTime="30.00" waitingCount="1" stopTime="0.00" timeLoss="65.50" rerouteNo="0" devices="tripinfo_left_43" vType="passenger" speedFactor="1.04" vaporized=""/>
    <tripinfo id="left_45" depart="84.00" departLane="52o_0" departPos="5.10" departSpeed="0.00" departDelay="6.00" arrival="221.00" arrivalLane="51i_0" arrivalPos="10.00" arrivalSpeed="12.47" duration="137.00" routeLength="1015.10" waitingTime="26.00" waitingCount="1" stopTime="0.00" timeLoss="64.39" rerouteNo="0" devices="tripinfo_left_45" vType="passenger" speedFactor="1.09" vaporized=""/>
    <tripinfo id="left_47" depart="89.00" departLane="52o_0" departPos="5.10" departSpeed="0.00" departDelay="6.00" arrival="223.00" arrivalLane="51i_0" arrivalPos="10.00" arrivalSpeed="10.43" duration="134.00" routeLength="1015.10" waitingTime="22.00" waitingCount="1" stopTime="0.00" timeLoss="52.80" rerouteNo="0" devices="tripinfo_left_47" vType="passenger" speedFactor="0.90" vaporized=""/>
    <tripinfo id="right_24" depart="54.00" departLane="51o_0" departPos="5.10" departSpeed="0.00" departDelay="12.00" arrival="224.00" arrivalLane="52i_0" arrivalPos="10.00" arrivalSpeed="9.54" duration="170.00" routeLength="1015.10" waitingTime="54.00" waitingCount="1" stopTime="0.00" timeLoss="82.72" rerouteNo="0" devices="tripinfo_right_24" vType="passenger" speedFactor="0.83" vaporized=""/>
    <tripinfo id="right_26" depart="59.00" departLane="51o_0" departPos="5.10" departSpeed="0.00" departDelay="15.00" arrival="226.00" arrivalLane="52i_0" arrivalPos="10.00" arrivalSpeed="10.17" duration="167.00" routeLength="1015.10" waitingTime="51.00" waitingCount="1" stopTime="0.00" timeLoss="86.23" rerouteNo="0" devices="tripinfo_right_26" vType="passenger" speedFactor="0.92" vaporized=""/>
    <tripinfo id="right_27" depart="64.00" departLane="51o_0" departPos="5.10" departSpeed="0.00" departDelay="17.00" arrival="227.00" arrivalLane="52i_0" arrivalPos="10.00" arrivalSpeed="10.42" duration="163.00" routeLength="1015.10" waitingTime="49.00" waitingCount="1" stopTime="0.00" timeLoss="84.90" rerouteNo="0" devices="tripinfo_right_27" vType="passenger" speedFactor="0.95" vaporized=""/>
    <tripinfo id="left_50" depart="94.00" departLane="52o_0" departPos="5.10" departSpeed="0.00" departDelay="6.00" arrival="228.00" arrivalLane="51i_0" arrivalPos="10.00" arrivalSpeed="9.87" duration="134.00" routeLength="1015.10" waitingTime="18.00" waitingCount="1" stopTime="0.00" timeLoss="49.40" rerouteNo="0" devices="tripinfo_left_50" vType="passenger" speedFactor="0.85" vaporized=""/>
    <tripinfo id="right_28" depart="69.00" departLane="51o_0" departPos="5.10" departSpeed="0.00" departDelay="21.00" arrival="229.00" arrivalLane="52i_0" arrivalPos="10.00" arrivalSpeed="10.55" duration="160.00" routeLength="1015.10" waitingTime="44.00" waitingCount="1" stopTime="0.00" timeLoss="89.24" rerouteNo="0" devices="tripinfo_right_28" vType="passenger" speedFactor="1.13" vaporized=""/>
    <tripinfo id="left_54" depart="101.00" departLane="52o_0" departPos="5.10" departSpeed="0.00" departDelay="0.00" arrival="229.00" arrivalLane="51i_0" arrivalPos="10.00" arrivalSpeed="9.96" duration="128.00" routeLength="1015.10" waitingTime="13.00" waitingCount="1" stopTime="0.00" timeLoss="52.21" rerouteNo="0" devices="tripinfo_left_54" vType="passenger" speedFactor="1.00" vaporized=""/>
    <tripinfo id="right_31" depart="74.00" departLane="51o_0" departPos="5.10" departSpeed="0.00" departDelay="18.00" arrival="231.00" arrivalLane="52i_0" arrivalPos="10.00" arrivalSpeed="11.06" duration="157.00" routeLength="1015.10" waitingTime="41.00" waitingCount="1" stopTime="0.00" timeLoss="86.86" rerouteNo="0" devices="tripinfo_right_31" vType="passenger" speedFactor="1.15" vaporized=""/>
    <tripinfo id="left_64" depart="116.00" departLane="52o_0" departPos="5.10" departSpeed="0.00" departDelay="0.00" arrival="231.00" arrivalLane="51i_0" arrivalPos="10.00" arrivalSpeed="10.68" duration="115.00" routeLength="1015.10" waitingTime="0.00" waitingCount="0" stopTime="0.00" timeLoss="35.88" rerouteNo="0" devices="tripinfo_left_64" vType="passenger" speedFactor="0.94" vaporized=""/>
    <tripinfo id="right_32" depart="79.00" departLane="51o_0" departPos="5.10" departSpeed="0.00" departDelay="22.00" arrival="233.00" arrivalLane="52i_0" arrivalPos="10.00" arrivalSpeed="11.49" duration="154.00" routeLength="1015.10" waitingTime="38.00" waitingCount="1" stopTime="0.00" timeLoss="77.58" rerouteNo="0" devices="tripinfo_right_32" vType="passenger" speedFactor="1.01" vaporized=""/>
    <tripinfo id="left_65" depart="121.00" departLane="52o_0" departPos="5.10" departSpeed="0.00" departDelay="4.00" arrival="233.00" arrivalLane="51i_0" arrivalPos="10.00" arrivalSpeed="10.19" duration="112.00" routeLength="1015.10" waitingTime="0.00" waitingCount="0" stopTime="0.00" timeLoss="29.80" rerouteNo="0" devices="tripinfo_left_65" vType="passenger" speedFactor="0.88" vaporized=""/>
    <tripinfo id="down_53" depart="98.00" departLane="54o_0" departPos="5.10" departSpeed="0.00" departDelay="0.00" arrival="234.00" arrivalLane="53i_0" arrivalPos="10.00" arrivalSpeed="12.72" duration="136.00" routeLength="1015.10" waitingTime="38.00" waitingCount="1" stopTime="0.00" timeLoss="63.58" rerouteNo="0" devices="tripinfo_down_53" vType="passenger" speedFactor="1.10" vaporized=""/>
    <tripinfo id="down_55" depart="103.00" departLane="54o_0" departPos="5.10" departSpeed="0.00" departDelay="2.00" arrival="239.00" arrivalLane="53i_0" arrivalPos="10.00" arrivalSpeed="11.69" duration="136.00" routeLength="1015.10" waitingTime="35.00" waitingCount="1" stopTime="0.00" timeLoss="59.96" rerouteNo="0" devices="tripinfo_down_55" vType="passenger" speedFactor="1.00" vaporized=""/>
    <tripinfo id="down_73" depart="132.00" departLane="54o_0" departPos="5.10" departSpeed="0.00" departDelay="3.00" arrival="241.00" arrivalLane="53i_0" arrivalPos="10.00" arrivalSpeed="11.97" duration="109.00" routeLength="1015.10" waitingTime="6.00" waitingCount="1" stopTime="0.00" timeLoss="35.28" rerouteNo="0" devices="tripinfo_down_73" vType="passenger" speedFactor="1.06" vaporized=""/>
    <tripinfo id="up_56" depart="103.00" departLane="53o_0" departPos="5.10" departSpeed="0.00" departDelay="0.00" arrival="242.00" arrivalLane="54i_0" arrivalPos="10.00" arrivalSpeed="10.37" duration="139.00" routeLength="1015.10" waitingTime="34.00" waitingCount="1" stopTime="0.00" timeLoss="57.31" rerouteNo="0" devices="tripinfo_up_56" vType="passenger" speedFactor="0.90" vaporized=""/>
    <tripinfo id="up_58" depart="108.00" departLane="53o_0" departPos="5.10" departSpeed="0.00" departDelay="4.00" arrival="243.00" arrivalLane="54i_0" arrivalPos="10.00" arrivalSpeed="10.27" duration="135.00" routeLength="1015.10" waitingTime="28.00" waitingCount="1" stopTime="0.00" timeLoss="60.20" rerouteNo="0" devices="tripinfo_up_58" vType="passenger" speedFactor="1.02" vaporized=""/>
    <tripinfo id="up_59" depart="113.00" departLane="53o_0" departPos="5.10" departSpeed="0.00" departDelay="7.00" arrival="245.00" arrivalLane="54i_0" arrivalPos="10.00" arrivalSpeed="10.82" duration="132.00" routeLength="1015.10" waitingTime="25.00" waitingCount="1" stopTime="0.00" timeLoss="54.55" rerouteNo="0" devices="tripinfo_up_59" vType="passenger" speedFactor="0.97" vaporized=""/>
    <tripinfo id="down_83" depart="149.00" departLane="54o_0" departPos="5.10" departSpeed="0.00" departDelay="0.00" arrival="245.00" arrivalLane="53i_0" arrivalPos="10.00" arrivalSpeed="11.26" duration="96.00" routeLength="1015.10" waitingTime="0.00" waitingCount="0" stopTime="0.00" timeLoss="18.61" rerouteNo="0" devices="tripinfo_down_83" vType="passenger" speedFactor="0.97" vaporized=""/>
    <tripinfo id="up_61" depart="119.00" departLane="53o_0" departPos="5.10" departSpeed="0.00" departDelay="11.00" arrival="247.00" arrivalLane="54i_0" arrivalPos="10.00" arrivalSpeed="10.92" duration="128.00" routeLength="1015.10" waitingTime="21.00" waitingCount="1" stopTime="0.00" timeLoss="56.55" rerouteNo="0" devices="tripinfo_up_61" vType="passenger" speedFactor="1.12" vaporized=""/>
    <tripinfo id="up_77" depart="135.00" departLane="53o_0" departPos="5.10" departSpeed="0.00" departDelay="0.00" arrival="249.00" arrivalLane="54i_0" arrivalPos="10.00" arrivalSpeed="11.54" duration="114.00" routeLength="1015.10" waitingTime="7.00" waitingCount="1" stopTime="0.00" timeLoss="36.56" rerouteNo="0" devices="tripinfo_up_77" vType="passenger" speedFactor="0.98" vaporized=""/>
    <tripinfo id="up_90" depart="162.00" departLane="53o_0" departPos="5.10" departSpeed="0.00" departDelay="0.00" arrival="253.00" arrivalLane="54i_0" arrivalPos="10.00" arrivalSpeed="11.94" duration="91.00" routeLength="1015.10" waitingTime="0.00" waitingCount="0" stopTime="0.00" timeLoss="15.29" rerouteNo="0" devices="tripinfo_up_90" vType="passenger" speedFactor="1.02" vaporized=""/>
    <tripinfo id="up_94" depart="171.00" departLane="53o_0" departPos="5.10" departSpeed="0.00" departDelay="1.00" arrival="258.00" arrivalLane="54i_0" arrivalPos="10.00" arrivalSpeed="12.22" duration="87.00" routeLength="1015.10" waitingTime="0.00" waitingCount="0" stopTime="0.00" timeLoss="14.69" rerouteNo="0" devices="tripinfo_up_94" vType="passenger" speedFactor="1.09" vaporized=""/>
    <tripinfo id="down_92" depart="164.00" departLane="54o_0" departPos="5.10" departSpeed="0.00" departDelay="0.00" arrival="266.00" arrivalLane="53i_0" arrivalPos="10.00" arrivalSpeed="9.53" duration="102.00" routeLength="1015.10" waitingTime="0.00" waitingCount="0" stopTime="0.00" timeLoss="15.62" rerouteNo="0" devices="tripinfo_down_92" vType="passenger" speedFactor="0.83" vaporized=""/>
    <tripinfo id="up_97" depart="176.00" departLane="53o_0" departPos="5.10" departSpeed="0.00" departDelay="1.00" arrival="272.00" arrivalLane="54i_0" arrivalPos="10.00" arrivalSpeed="10.37" duration="96.00" routeLength="1015.10" waitingTime="0.00" waitingCount="0" stopTime="0.00" timeLoss="14.99" rerouteNo="0" devices="tripinfo_up_97" vType="passenger" speedFactor="0.91" vaporized=""/>
    <tripinfo id="up_100" depart="181.00" departLane="53o_0" departPos="5.10" departSpeed="0.00" departDelay="3.00" arrival="274.00" arrivalLane="54i_0" arrivalPos="10.00" arrivalSpeed="11.21" duration="93.00" routeLength="1015.10" waitingTime="0.00" waitingCount="0" stopTime="0.00" timeLoss="19.07" rerouteNo="0" devices="tripinfo_up_100" vType="passenger" speedFactor="1.07" vaporized=""/>
    <tripinfo id="right_34" depart="84.00" departLane="51o_0" departPos="5.10" departSpeed="0.00" departDelay="23.00" arrival="327.00" arrivalLane="52i_0" arrivalPos="10.00" arrivalSpeed="11.62" duration="243.00" routeLength="1015.10" waitingTime="124.00" waitingCount="2" stopTime="0.00" timeLoss="166.43" rerouteNo="0" devices="tripinfo_right_34" vType="passenger" speedFactor="0.99" vaporized=""/>
    <tripinfo id="right_35" depart="89.00" departLane="51o_0" departPos="5.10" departSpeed="0.00" departDelay="26.00" arrival="329.00" arrivalLane="52i_0" arrivalPos="10.00" arrivalSpeed="11.97" duration="240.00" routeLength="1015.10" waitingTime="120.00" waitingCount="2" stopTime="0.00" timeLoss="164.19" rerouteNo="0" devices="tripinfo_right_35" vType="passenger" speedFactor="1.02" vaporized=""/>
    <tripinfo id="left_66" depart="126.00" departLane="52o_0" departPos="5.10" departSpeed="0.00" departDelay="6.00" arrival="330.00" arrivalLane="51i_0" arrivalPos="10.00" arrivalSpeed="10.27" duration="204.00" routeLength="1015.10" waitingTime="89.00" waitingCount="1" stopTime="0.00" timeLoss="123.52" rerouteNo="0" devices="tripinfo_left_66" vType="passenger" speedFactor="0.91" vaporized=""/>
    <tripinfo id="right_36" depart="94.00" departLane="51o_0" departPos="5.10" departSpeed="0.00" departDelay="30.00" arrival="332.00" arrivalLane="52i_0" arrivalPos="10.00" arrivalSpeed="11.11" duration="238.00" routeLength="1015.10" waitingTime="116.00" waitingCount="3" stopTime="0.00" timeLoss="160.49" rerouteNo="0" devices="tripinfo_right_36" vType="passenger" speedFactor="0.97" vaporized=""/>
    <tripinfo id="left_67" depart="131.00" departLane="52o_0" departPos="5.10" departSpeed="0.00" departDelay="8.00" arrival="332.00" arrivalLane="51i_0" arrivalPos="10.00" arrivalSpeed="10.57" duration="201.00" routeLength="1015.10" waitingTime="88.00" waitingCount="1" stopTime="0.00" timeLoss="120.96" rerouteNo="0" devices="tripinfo_left_67" vType="passenger" speedFactor="0.91" vaporized=""/>
    <tripinfo id="right_38" depart="101.00" departLane="51o_0" departPos="5.10" departSpeed="0.00" departDelay="32.00" arrival="334.00" arrivalLane="52i_0" arrivalPos="10.00" arrivalSpeed="11.44" duration="233.00" routeLength="1015.10" waitingTime="109.00" waitingCount="2" stopTime="0.00" timeLoss="160.68" rerouteNo="0" devices="tripinfo_right_38" vType="passenger" speedFactor="1.10" vaporized=""/>
    <tripinfo id="left_68" depart="136.00" departLane="52o_0" departPos="5.10" departSpeed="0.00" departDelay="12.00" arrival="334.00" arrivalLane="51i_0" arrivalPos="10.00" arrivalSpeed="10.97" duration="198.00" routeLength="1015.10" waitingTime="87.00" waitingCount="1" stopTime="0.00" timeLoss="123.69" rerouteNo="0" devices="tripinfo_left_68" vType="passenger" speedFactor="1.04" vaporized=""/>
    <tripinfo id="right_42" depart="106.00" departLane="51o_0" departPos="5.10" departSpeed="0.00" departDelay="30.00" arrival="335.00" arrivalLane="52i_0" arrivalPos="10.00" arrivalSpeed="11.72" duration="229.00" routeLength="1015.10" waitingTime="106.00" waitingCount="2" stopTime="0.00" timeLoss="157.01" rerouteNo="0" devices="tripinfo_right_42" vType="passenger" speedFactor="1.09" vaporized=""/>
    <tripinfo id="left_69" depart="141.00" departLane="52o_0" departPos="5.10" departSpeed="0.00" departDelay="16.00" arrival="336.00" arrivalLane="51i_0" arrivalPos="10.00" arrivalSpeed="11.72" duration="195.00" routeLength="1015.10" waitingTime="87.00" waitingCount="1" stopTime="0.00" timeLoss="119.52" rerouteNo="0" devices="tripinfo_left_69" vType="passenger" speedFactor="1.02" vaporized=""/>
    <tripinfo id="right_44" depart="113.00" departLane="51o_0" departPos="5.10" departSpeed="0.00" departDelay="35.00" arrival="337.00" arrivalLane="52i_0" arrivalPos="10.00" arrivalSpeed="11.92" duration="224.00" routeLength="1015.10" waitingTime="100.00" waitingCount="2" stopTime="0.00" timeLoss="149.85" rerouteNo="0" devices="tripinfo_right_44" vType="passenger" speedFactor="1.04" vaporized=""/>
    <tripinfo id="left_72" depart="146.00" departLane="52o_0" departPos="5.10" departSpeed="0.00" departDelay="17.00" arrival="338.00" arrivalLane="51i_0" arrivalPos="10.00" arrivalSpeed="10.49" duration="192.00" routeLength="1015.10" waitingTime="85.00" waitingCount="1" stopTime="0.00" timeLoss="112.69" rerouteNo="0" devices="tripinfo_left_72" vType="passenger" speedFactor="0.94" vaporized=""/>
    <tripinfo id="right_46" depart="118.00" departLane="51o_0" departPos="5.10" departSpeed="0.00" departDelay="37.00" arrival="339.00" arrivalLane="52i_0" arrivalPos="10.00" arrivalSpeed="11.58" duration="221.00" routeLength="1015.10" waitingTime="95.00" waitingCount="2" stopTime="0.00" timeLoss="144.57" rerouteNo="0" devices="tripinfo_right_46" vType="passenger" speedFactor="1.00" vaporized=""/>