<?xml version="1.0" encoding="UTF-8"?>

<!-- generated on Sun Sep  8 05:27:18 2019 by Eclipse SUMO GUI Version 1.2.0
<configuration xmlns:xsi="http://www.w3.org/2001/XMLSchema-instance" xsi:noNamespaceSchemaLocation="http://sumo.dlr.de/xsd/sumoConfiguration.xsd">

    <input>
        <net-file value="data/cross.net.xml"/>
        <route-files value="data/cross.rou.xml"/>
        <additional-files value="data/cross.tlsp.xml"/>
    </input>

    <output>
        <tripinfo-output value="tripinfo.xml"/>
    </output>

    <time>
        <begin value="0"/>
    </time>

    <report>
        <verbose value="true"/>
        <no-step-log value="true"/>
    </report>

    <traci_server>
        <remote-port value="47687"/>
    </traci_server>

</configuration>
-->

<tripinfos xmlns:xsi="http://www.w3.org/2001/XMLSchema-instance" xsi:noNamespaceSchemaLocation="http://sumo.dlr.de/xsd/tripinfo_file.xsd">
    <tripinfo id="left_0" depart="0.00" departLane="52o_0" departPos="5.10" departSpeed="0.00" departDelay="0.00" arrival="88.00" arrivalLane="51i_0" arrivalPos="10.00" arrivalSpeed="12.10" duration="88.00" routeLength="1015.10" waitingTime="0.00" waitingCount="0" stopTime="0.00" timeLoss="14.60" rerouteNo="0" devices="tripinfo_left_0" vType="typeWE" speedFactor="1.06" vaporized=""/>
    <tripinfo id="right_2" depart="3.00" departLane="51o_0" departPos="5.10" departSpeed="0.00" departDelay="0.00" arrival="94.00" arrivalLane="52i_0" arrivalPos="10.00" arrivalSpeed="11.37" duration="91.00" routeLength="1015.10" waitingTime="0.00" waitingCount="0" stopTime="0.00" timeLoss="14.92" rerouteNo="0" devices="tripinfo_right_2" vType="typeWE" speedFactor="1.01" vaporized=""/>
    <tripinfo id="right_3" depart="8.00" departLane="51o_0" departPos="5.10" departSpeed="0.00" departDelay="4.00" arrival="96.00" arrivalLane="52i_0" arrivalPos="10.00" arrivalSpeed="12.18" duration="88.00" routeLength="1015.10" waitingTime="0.00" waitingCount="0" stopTime="0.00" timeLoss="14.90" rerouteNo="0" devices="tripinfo_right_3" vType="typeWE" speedFactor="1.08" vaporized=""/>
    <tripinfo id="left_1" depart="5.00" departLane="52o_0" departPos="5.10" departSpeed="0.00" departDelay="3.00" arrival="99.00" arrivalLane="51i_0" arrivalPos="10.00" arrivalSpeed="10.79" duration="94.00" routeLength="1015.10" waitingTime="0.00" waitingCount="0" stopTime="0.00" timeLoss="14.93" rerouteNo="0" devices="tripinfo_left_1" vType="typeWE" speedFactor="0.94" vaporized=""/>
    <tripinfo id="left_4" depart="10.00" departLane="52o_0" departPos="5.10" departSpeed="0.00" departDelay="4.00" arrival="101.00" arrivalLane="51i_0" arrivalPos="10.00" arrivalSpeed="11.39" duration="91.00" routeLength="1015.10" waitingTime="0.00" waitingCount="0" stopTime="0.00" timeLoss="15.96" rerouteNo="0" devices="tripinfo_left_4" vType="typeWE" speedFactor="1.03" vaporized=""/>
    <tripinfo id="right_5" depart="13.00" departLane="51o_0" departPos="5.10" departSpeed="0.00" departDelay="4.00" arrival="114.00" arrivalLane="52i_0" arrivalPos="10.00" arrivalSpeed="9.42" duration="101.00" routeLength="1015.10" waitingTime="0.00" waitingCount="0" stopTime="0.00" timeLoss="14.51" rerouteNo="0" devices="tripinfo_right_5" vType="typeWE" speedFactor="0.83" vaporized=""/>
    <tripinfo id="right_10" depart="42.00" departLane="51o_0" departPos="5.10" departSpeed="0.00" departDelay="0.00" arrival="150.00" arrivalLane="52i_0" arrivalPos="10.00" arrivalSpeed="12.69" duration="108.00" routeLength="1015.10" waitingTime="9.00" waitingCount="1" stopTime="0.00" timeLoss="35.49" rerouteNo="0" devices="tripinfo_right_10" vType="typeWE" speedFactor="1.09" vaporized=""/>
    <tripinfo id="left_6" depart="22.00" departLane="52o_0" departPos="5.10" departSpeed="0.00" departDelay="0.00" arrival="152.00" arrivalLane="51i_0" arrivalPos="10.00" arrivalSpeed="12.10" duration="130.00" routeLength="1015.10" waitingTime="28.00" waitingCount="1" stopTime="0.00" timeLoss="55.94" rerouteNo="0" devices="tripinfo_left_6" vType="typeWE" speedFactor="1.05" vaporized=""/>
    <tripinfo id="right_13" depart="55.00" departLane="51o_0" departPos="5.10" departSpeed="0.00" departDelay="0.00" arrival="152.00" arrivalLane="52i_0" arrivalPos="10.00" arrivalSpeed="13.20" duration="97.00" routeLength="1015.10" waitingTime="0.00" waitingCount="0" stopTime="0.00" timeLoss="25.29" rerouteNo="0" devices="tripinfo_right_13" vType="typeWE" speedFactor="1.12" vaporized=""/>
    <tripinfo id="right_14" depart="61.00" departLane="51o_0" departPos="5.10" departSpeed="0.00" departDelay="0.00" arrival="158.00" arrivalLane="52i_0" arrivalPos="10.00" arrivalSpeed="11.14" duration="97.00" routeLength="1015.10" waitingTime="0.00" waitingCount="0" stopTime="0.00" timeLoss="20.25" rerouteNo="0" devices="tripinfo_right_14" vType="typeWE" speedFactor="0.99" vaporized=""/>
    <tripinfo id="left_7" depart="31.00" departLane="52o_0" departPos="5.10" departSpeed="0.00" departDelay="0.00" arrival="161.00" arrivalLane="51i_0" arrivalPos="10.00" arrivalSpeed="10.35" duration="130.00" routeLength="1015.10" waitingTime="22.00" waitingCount="1" stopTime="0.00" timeLoss="47.93" rerouteNo="0" devices="tripinfo_left_7" vType="typeWE" speedFactor="0.89" vaporized=""/>
    <tripinfo id="left_8" depart="36.00" departLane="52o_0" departPos="5.10" departSpeed="0.00" departDelay="3.00" arrival="163.00" arrivalLane="51i_0" arrivalPos="10.00" arrivalSpeed="10.81" duration="127.00" routeLength="1015.10" waitingTime="17.00" waitingCount="1" stopTime="0.00" timeLoss="47.44" rerouteNo="0" devices="tripinfo_left_8" vType="typeWE" speedFactor="0.94" vaporized=""/>
    <tripinfo id="right_15" depart="69.00" departLane="51o_0" departPos="5.10" departSpeed="0.00" departDelay="0.00" arrival="164.00" arrivalLane="52i_0" arrivalPos="10.00" arrivalSpeed="10.37" duration="95.00" routeLength="1015.10" waitingTime="0.00" waitingCount="0" stopTime="0.00" timeLoss="14.94" rerouteNo="0" devices="tripinfo_right_15" vType="typeWE" speedFactor="0.93" vaporized=""/>
    <tripinfo id="left_9" depart="41.00" departLane="52o_0" departPos="5.10" departSpeed="0.00" departDelay="0.00" arrival="167.00" arrivalLane="51i_0" arrivalPos="10.00" arrivalSpeed="10.19" duration="126.00" routeLength="1015.10" waitingTime="15.00" waitingCount="1" stopTime="0.00" timeLoss="42.25" rerouteNo="0" devices="tripinfo_left_9" vType="typeWE" speedFactor="0.86" vaporized=""/>
    <tripinfo id="left_11" depart="46.00" departLane="52o_0" departPos="5.10" departSpeed="0.00" departDelay="1.00" arrival="169.00" arrivalLane="51i_0" arrivalPos="10.00" arrivalSpeed="10.61" duration="123.00" routeLength="1015.10" waitingTime="10.00" waitingCount="1" stopTime="0.00" timeLoss="47.78" rerouteNo="0" devices="tripinfo_left_11" vType="typeWE" speedFactor="1.03" vaporized=""/>
    <tripinfo id="left_12" depart="53.00" departLane="52o_0" departPos="5.10" departSpeed="0.00" departDelay="0.00" arrival="171.00" arrivalLane="51i_0" arrivalPos="10.00" arrivalSpeed="11.31" duration="118.00" routeLength="1015.10" waitingTime="6.00" waitingCount="1" stopTime="0.00" timeLoss="43.43" rerouteNo="0" devices="tripinfo_left_12" vType="typeWE" speedFactor="1.05" vaporized=""/>
    <tripinfo id="down_18" depart="89.00" departLane="54o_0" departPos="7.10" departSpeed="0.00" departDelay="0.00" arrival="182.00" arrivalLane="53i_0" arrivalPos="10.00" arrivalSpeed="10.69" duration="93.00" routeLength="1013.10" waitingTime="0.00" waitingCount="0" stopTime="0.00" timeLoss="16.59" rerouteNo="0" devices="tripinfo_down_18" vType="typeNS" speedFactor="0.94" vaporized=""/>
    <tripinfo id="down_19" depart="96.00" departLane="54o_0" departPos="7.10" departSpeed="0.00" departDelay="0.00" arrival="184.00" arrivalLane="53i_0" arrivalPos="10.00" arrivalSpeed="11.46" duration="88.00" routeLength="1013.10" waitingTime="0.00" waitingCount="0" stopTime="0.00" timeLoss="26.01" rerouteNo="0" devices="tripinfo_down_19" vType="typeNS" speedFactor="1.16" vaporized=""/>
    <tripinfo id="left_17" depart="85.00" departLane="52o_0" departPos="5.10" departSpeed="0.00" departDelay="0.00" arrival="217.00" arrivalLane="51i_0" arrivalPos="10.00" arrivalSpeed="10.67" duration="132.00" routeLength="1015.10" waitingTime="28.00" waitingCount="1" stopTime="0.00" timeLoss="53.45" rerouteNo="0" devices="tripinfo_left_17" vType="typeWE" speedFactor="0.94" vaporized=""/>
    <tripinfo id="left_21" depart="99.00" departLane="52o_0" departPos="5.10" departSpeed="0.00" departDelay="0.00" arrival="219.00" arrivalLane="51i_0" arrivalPos="10.00" arrivalSpeed="11.55" duration="120.00" routeLength="1015.10" waitingTime="16.00" waitingCount="1" stopTime="0.00" timeLoss="44.33" rerouteNo="0" devices="tripinfo_left_21" vType="typeWE" speedFactor="1.01" vaporized=""/>
    <tripinfo id="right_16" depart="84.00" departLane="51o_0" departPos="5.10" departSpeed="0.00" departDelay="0.00" arrival="221.00" arrivalLane="52i_0" arrivalPos="10.00" arrivalSpeed="10.19" duration="137.00" routeLength="1015.10" waitingTime="30.00" waitingCount="1" stopTime="0.00" timeLoss="54.50" rerouteNo="0" devices="tripinfo_right_16" vType="typeWE" speedFactor="0.88" vaporized=""/>
    <tripinfo id="right_20" depart="101.00" departLane="51o_0" departPos="5.10" departSpeed="0.00" departDelay="2.00" arrival="223.00" arrivalLane="52i_0" arrivalPos="10.00" arrivalSpeed="10.70" duration="122.00" routeLength="1015.10" waitingTime="13.00" waitingCount="1" stopTime="0.00" timeLoss="46.30" rerouteNo="0" devices="tripinfo_right_20" vType="typeWE" speedFactor="1.02" vaporized=""/>
    <tripinfo id="right_22" depart="108.00" departLane="51o_0" departPos="5.10" departSpeed="0.00" departDelay="0.00" arrival="224.00" arrivalLane="52i_0" arrivalPos="10.00" arrivalSpeed="10.49" duration="116.00" routeLength="1015.10" waitingTime="8.00" waitingCount="1" stopTime="0.00" timeLoss="39.16" rerouteNo="0" devices="tripinfo_right_22" vType="typeWE" speedFactor="0.98" vaporized=""/>
    <tripinfo id="left_26" depart="131.00" departLane="52o_0" departPos="5.10" departSpeed="0.00" departDelay="0.00" arrival="226.00" arrivalLane="51i_0" arrivalPos="10.00" arrivalSpeed="10.52" duration="95.00" routeLength="1015.10" waitingTime="0.00" waitingCount="0" stopTime="0.00" timeLoss="14.94" rerouteNo="0" devices="tripinfo_left_26" vType="typeWE" speedFactor="0.92" vaporized=""/>
    <tripinfo id="right_23" depart="114.00" departLane="51o_0" departPos="5.10" departSpeed="0.00" departDelay="0.00" arrival="227.00" arrivalLane="52i_0" arrivalPos="10.00" arrivalSpeed="10.06" duration="113.00" routeLength="1015.10" waitingTime="3.00" waitingCount="1" stopTime="0.00" timeLoss="30.73" rerouteNo="0" devices="tripinfo_right_23" vType="typeWE" speedFactor="0.89" vaporized=""/>
    <tripinfo id="right_25" depart="125.00" departLane="51o_0" departPos="5.10" departSpeed="0.00" departDelay="0.00" arrival="230.00" arrivalLane="52i_0" arrivalPos="10.00" arrivalSpeed="10.07" duration="105.00" routeLength="1015.10" waitingTime="0.00" waitingCount="0" stopTime="0.00" timeLoss="21.95" rerouteNo="0" devices="tripinfo_right_25" vType="typeWE" speedFactor="0.87" vaporized=""/>
    <tripinfo id="left_27" depart="136.00" departLane="52o_0" departPos="5.10" departSpeed="0.00" departDelay="1.00" arrival="230.00" arrivalLane="51i_0" arrivalPos="10.00" arrivalSpeed="10.91" duration="94.00" routeLength="1015.10" waitingTime="0.00" waitingCount="0" stopTime="0.00" timeLoss="14.88" rerouteNo="0" devices="tripinfo_left_27" vType="typeWE" speedFactor="0.95" vaporized=""/>
    <tripinfo id="left_28" depart="141.00" departLane="52o_0" departPos="5.10" departSpeed="0.00" departDelay="3.00" arrival="231.00" arrivalLane="51i_0" arrivalPos="10.00" arrivalSpeed="10.94" duration="90.00" routeLength="1015.10" waitingTime="0.00" waitingCount="0" stopTime="0.00" timeLoss="19.21" rerouteNo="0" devices="tripinfo_left_28" vType="typeWE" speedFactor="1.13" vaporized=""/>
    <tripinfo id="down_24" depart="122.00" departLane="54o_0" departPos="7.10" departSpeed="0.00" departDelay="0.00" arrival="255.00" arrivalLane="53i_0" arrivalPos="10.00" arrivalSpeed="10.10" duration="133.00" routeLength="1013.10" waitingTime="22.00" waitingCount="1" stopTime="0.00" timeLoss="46.13" rerouteNo="0" devices="tripinfo_down_24" vType="typeNS" speedFactor="0.83" vaporized=""/>
    <tripinfo id="down_39" depart="172.00" departLane="54o_0" departPos="7.10" departSpeed="0.00" departDelay="0.00" arrival="268.00" arrivalLane="53i_0" arrivalPos="10.00" arrivalSpeed="10.65" duration="96.00" routeLength="1013.10" waitingTime="0.00" waitingCount="0" stopTime="0.00" timeLoss="16.12" rerouteNo="0" devices="tripinfo_down_39" vType="typeNS" speedFactor="0.90" vaporized=""/>
    <tripinfo id="right_30" depart="145.00" departLane="51o_0" departPos="5.10" departSpeed="0.00" departDelay="0.00" arrival="272.00" arrivalLane="52i_0" arrivalPos="10.00" arrivalSpeed="13.58" duration="127.00" routeLength="1015.10" waitingTime="29.00" waitingCount="1" stopTime="0.00" timeLoss="57.35" rerouteNo="0" devices="tripinfo_right_30" vType="typeWE" speedFactor="1.18" vaporized=""/>
    <tripinfo id="right_35" depart="167.00" departLane="51o_0" departPos="5.10" departSpeed="0.00" departDelay="0.00" arrival="278.00" arrivalLane="52i_0" arrivalPos="10.00" arrivalSpeed="11.66" duration="111.00" routeLength="1015.10" waitingTime="8.00" waitingCount="1" stopTime="0.00" timeLoss="36.03" rerouteNo="0" devices="tripinfo_right_35" vType="typeWE" speedFactor="1.02" vaporized=""/>
    <tripinfo id="left_29" depart="146.00" departLane="52o_0" departPos="5.10" departSpeed="0.00" departDelay="4.00" arrival="279.00" arrivalLane="51i_0" arrivalPos="10.00" arrivalSpeed="10.90" duration="133.00" routeLength="1015.10" waitingTime="28.00" waitingCount="1" stopTime="0.00" timeLoss="53.92" rerouteNo="0" devices="tripinfo_left_29" vType="typeWE" speedFactor="0.93" vaporized=""/>
    <tripinfo id="left_31" depart="153.00" departLane="52o_0" departPos="5.10" departSpeed="0.00" departDelay="0.00" arrival="281.00" arrivalLane="51i_0" arrivalPos="10.00" arrivalSpeed="11.11" duration="128.00" routeLength="1015.10" waitingTime="23.00" waitingCount="1" stopTime="0.00" timeLoss="58.02" rerouteNo="0" devices="tripinfo_left_31" vType="typeWE" speedFactor="1.15" vaporized=""/>
    <tripinfo id="left_32" depart="158.00" departLane="52o_0" departPos="5.10" departSpeed="0.00" departDelay="2.00" arrival="283.00" arrivalLane="51i_0" arrivalPos="10.00" arrivalSpeed="11.45" duration="125.00" routeLength="1015.10" waitingTime="20.00" waitingCount="1" stopTime="0.00" timeLoss="48.95" rerouteNo="0" devices="tripinfo_left_32" vType="typeWE" speedFactor="1.01" vaporized=""/>
    <tripinfo id="right_36" depart="172.00" departLane="51o_0" departPos="5.10" departSpeed="0.00" departDelay="4.00" arrival="283.00" arrivalLane="52i_0" arrivalPos="10.00" arrivalSpeed="10.91" duration="111.00" routeLength="1015.10" waitingTime="5.00" waitingCount="1" stopTime="0.00" timeLoss="33.66" rerouteNo="0" devices="tripinfo_right_36" vType="typeWE" speedFactor="0.97" vaporized=""/>
    <tripinfo id="left_33" depart="164.00" departLane="52o_0" departPos="5.10" departSpeed="0.00" departDelay="4.00" arrival="285.00" arrivalLane="51i_0" arrivalPos="10.00" arrivalSpeed="11.87" duration="121.00" routeLength="1015.10" waitingTime="15.00" waitingCount="1" stopTime="0.00" timeLoss="51.02" rerouteNo="0" devices="tripinfo_left_33" vType="typeWE" speedFactor="1.17" vaporized=""/>
    <tripinfo id="right_40" depart="177.00" departLane="51o_0" departPos="5.10" departSpeed="0.00" departDelay="1.00" arrival="285.00" arrivalLane="52i_0" arrivalPos="10.00" arrivalSpeed="11.56" duration="108.00" routeLength="1015.10" waitingTime="1.00" waitingCount="1" stopTime="0.00" timeLoss="33.06" rerouteNo="0" devices="tripinfo_right_40" vType="typeWE" speedFactor="1.03" vaporized=""/>
    <tripinfo id="left_34" depart="169.00" departLane="52o_0" departPos="5.10" departSpeed="0.00" departDelay="5.00" arrival="286.00" arrivalLane="51i_0" arrivalPos="10.00" arrivalSpeed="11.26" duration="117.00" routeLength="1015.10" waitingTime="12.00" waitingCount="1" stopTime="0.00" timeLoss="40.95" rerouteNo="0" devices="tripinfo_left_34" vType="typeWE" speedFactor="0.99" vaporized=""/>
    <tripinfo id="right_41" depart="182.00" departLane="51o_0" departPos="5.10" departSpeed="0.00" departDelay="1.00" arrival="287.00" arrivalLane="52i_0" arrivalPos="10.00" arrivalSpeed="11.35" duration="105.00" routeLength="1015.10" waitingTime="0.00" waitingCount="0" stopTime="0.00" timeLoss="27.07" rerouteNo="0" devices="tripinfo_right_41" vType="typeWE" speedFactor="0.96" vaporized=""/>
    <tripinfo id="left_37" depart="174.00" departLane="52o_0" departPos="5.10" departSpeed="0.00" departDelay="5.00" arrival="288.00" arrivalLane="51i_0" arrivalPos="10.00" arrivalSpeed="11.99" duration="114.00" routeLength="1015.10" waitingTime="8.00" waitingCount="1" stopTime="0.00" timeLoss="44.62" rerouteNo="0" devices="tripinfo_left_37" vType="typeWE" speedFactor="1.18" vaporized=""/>
    <tripinfo id="right_42" depart="187.00" departLane="51o_0" departPos="5.10" departSpeed="0.00" departDelay="4.00" arrival="289.00" arrivalLane="52i_0" arrivalPos="10.00" arrivalSpeed="11.89" duration="102.00" routeLength="1015.10" waitingTime="0.00" waitingCount="0" stopTime="0.00" timeLoss="29.57" rerouteNo="0" devices="tripinfo_right_42" vType="typeWE" speedFactor="1.09" vaporized=""/>
    <tripinfo id="left_38" depart="179.00" departLane="52o_0" departPos="5.10" departSpeed="0.00" departDelay="7.00" arrival="290.00" arrivalLane="51i_0" arrivalPos="10.00" arrivalSpeed="12.51" duration="111.00" routeLength="1015.10" waitingTime="5.00" waitingCount="1" stopTime="0.00" timeLoss="38.60" rerouteNo="0" devices="tripinfo_left_38" vType="typeWE" speedFactor="1.10" vaporized=""/>
    <tripinfo id="left_43" depart="194.00" departLane="52o_0" departPos="5.10" departSpeed="0.00" departDelay="0.00" arrival="291.00" arrivalLane="51i_0" arrivalPos="10.00" arrivalSpeed="11.51" duration="97.00" routeLength="1015.10" waitingTime="0.00" waitingCount="0" stopTime="0.00" timeLoss="22.56" rerouteNo="0" devices="tripinfo_left_43" vType="typeWE" speedFactor="1.04" vaporized=""/>
    <tripinfo id="right_46" depart="200.00" departLane="51o_0" departPos="5.10" departSpeed="0.00" departDelay="0.00" arrival="291.00" arrivalLane="52i_0" arrivalPos="10.00" arrivalSpeed="11.25" duration="91.00" routeLength="1015.10" waitingTime="0.00" waitingCount="0" stopTime="0.00" timeLoss="14.77" rerouteNo="0" devices="tripinfo_right_46" vType="typeWE" speedFactor="1.00" vaporized=""/>
    <tripinfo id="left_44" depart="199.00" departLane="52o_0" departPos="5.10" departSpeed="0.00" departDelay="3.00" arrival="293.00" arrivalLane="51i_0" arrivalPos="10.00" arrivalSpeed="12.19" duration="94.00" routeLength="1015.10" waitingTime="0.00" waitingCount="0" stopTime="0.00" timeLoss="19.72" rerouteNo="0" devices="tripinfo_left_44" vType="typeWE" speedFactor="1.04" vaporized=""/>
    <tripinfo id="left_45" depart="204.00" departLane="52o_0" departPos="5.10" departSpeed="0.00" departDelay="5.00" arrival="295.00" arrivalLane="51i_0" arrivalPos="10.00" arrivalSpeed="12.12" duration="91.00" routeLength="1015.10" waitingTime="0.00" waitingCount="0" stopTime="0.00" timeLoss="18.37" rerouteNo="0" devices="tripinfo_left_45" vType="typeWE" speedFactor="1.09" vaporized=""/>
    <tripinfo id="left_47" depart="212.00" departLane="52o_0" departPos="5.10" departSpeed="0.00" departDelay="0.00" arrival="344.00" arrivalLane="51i_0" arrivalPos="10.00" arrivalSpeed="10.47" duration="132.00" routeLength="1015.10" waitingTime="24.00" waitingCount="1" stopTime="0.00" timeLoss="50.93" rerouteNo="0" devices="tripinfo_left_47" vType="typeWE" speedFactor="0.90" vaporized=""/>
    <tripinfo id="right_48" depart="217.00" departLane="51o_0" departPos="5.10" departSpeed="0.00" departDelay="0.00" arrival="346.00" arrivalLane="52i_0" arrivalPos="10.00" arrivalSpeed="10.05" duration="129.00" routeLength="1015.10" waitingTime="20.00" waitingCount="1" stopTime="0.00" timeLoss="46.93" rerouteNo="0" devices="tripinfo_right_48" vType="typeWE" speedFactor="0.88" vaporized=""/>
    <tripinfo id="left_49" depart="219.00" departLane="52o_0" departPos="5.10" departSpeed="0.00" departDelay="0.00" arrival="349.00" arrivalLane="51i_0" arrivalPos="10.00" arrivalSpeed="9.81" duration="130.00" routeLength="1015.10" waitingTime="18.00" waitingCount="1" stopTime="0.00" timeLoss="45.72" rerouteNo="0" devices="tripinfo_left_49" vType="typeWE" speedFactor="0.85" vaporized=""/>
    <tripinfo id="right_50" depart="231.00" departLane="51o_0" departPos="5.10" departSpeed="0.00" departDelay="3.00" arrival="350.00" arrivalLane="52i_0" arrivalPos="10.00" arrivalSpeed="10.13" duration="119.00" routeLength="1015.10" waitingTime="7.00" waitingCount="1" stopTime="0.00" timeLoss="34.96" rerouteNo="0" devices="tripinfo_right_50" vType="typeWE" speedFactor="0.85" vaporized=""/>
    <tripinfo id="left_51" depart="234.00" departLane="52o_0" departPos="5.10" departSpeed="0.00" departDelay="0.00" arrival="351.00" arrivalLane="51i_0" arrivalPos="10.00" arrivalSpeed="10.27" duration="117.00" routeLength="1015.10" waitingTime="4.00" waitingCount="1" stopTime="0.00" timeLoss="47.31" rerouteNo="0" devices="tripinfo_left_51" vType="typeWE" speedFactor="1.17" vaporized=""/>
    <tripinfo id="right_53" depart="240.00" departLane="51o_0" departPos="5.10" departSpeed="0.00" departDelay="0.00" arrival="352.00" arrivalLane="52i_0" arrivalPos="10.00" arrivalSpeed="10.92" duration="112.00" routeLength="1015.10" waitingTime="0.00" waitingCount="0" stopTime="0.00" timeLoss="39.53" rerouteNo="0" devices="tripinfo_right_53" vType="typeWE" speedFactor="1.10" vaporized=""/>
    <tripinfo id="left_52" depart="239.00" departLane="52o_0" departPos="5.10" departSpeed="0.00" departDelay="1.00" arrival="353.00" arrivalLane="51i_0" arrivalPos="10.00" arrivalSpeed="11.23" duration="114.00" routeLength="1015.10" waitingTime="2.00" waitingCount="1" stopTime="0.00" timeLoss="38.22" rerouteNo="0" devices="tripinfo_left_52" vType="typeWE" speedFactor="1.02" vaporized=""/>
    <tripinfo id="left_54" depart="272.00" departLane="52o_0" departPos="5.10" departSpeed="0.00" departDelay="0.00" arrival="402.00" arrivalLane="51i_0" arrivalPos="10.00" arrivalSpeed="11.64" duration="130.00" routeLength="1015.10" waitingTime="28.00" waitingCount="1" stopTime="0.00" timeLoss="53.63" rerouteNo="0" devices="tripinfo_left_54" vType="typeWE" speedFactor="1.00" vaporized=""/>
    <tripinfo id="left_55" depart="278.00" departLane="52o_0" departPos="5.10" departSpeed="0.00" departDelay="3.00" arrival="405.00" arrivalLane="51i_0" arrivalPos="10.00" arrivalSpeed="11.53" duration="127.00" routeLength="1015.10" waitingTime="24.00" waitingCount="1" stopTime="0.00" timeLoss="50.71" rerouteNo="0" devices="tripinfo_left_55" vType="typeWE" speedFactor="1.00" vaporized=""/>
    <tripinfo id="right_56" depart="286.00" departLane="51o_0" departPos="5.10" departSpeed="0.00" departDelay="2.00" arrival="406.00" arrivalLane="52i_0" arrivalPos="10.00" arrivalSpeed="10.62" duration="120.00" routeLength="1015.10" waitingTime="13.00" waitingCount="1" stopTime="0.00" timeLoss="38.50" rerouteNo="0" devices="tripinfo_right_56" vType="typeWE" speedFactor="0.90" vaporized=""/>
    <tripinfo id="right_57" depart="291.00" departLane="51o_0" departPos="5.10" departSpeed="0.00" departDelay="5.00" arrival="408.00" arrivalLane="52i_0" arrivalPos="10.00" arrivalSpeed="10.99" duration="117.00" routeLength="1015.10" waitingTime="9.00" waitingCount="1" stopTime="0.00" timeLoss="45.99" rerouteNo="0" devices="tripinfo_right_57" vType="typeWE" speedFactor="1.14" vaporized=""/>
    <tripinfo id="right_58" depart="297.00" departLane="51o_0" departPos="5.10" departSpeed="0.00" departDelay="9.00" arrival="409.00" arrivalLane="52i_0" arrivalPos="10.00" arrivalSpeed="11.09" duration="112.00" routeLength="1015.10" waitingTime="6.00" waitingCount="1" stopTime="0.00" timeLoss="37.08" rerouteNo="0" devices="tripinfo_right_58" vType="typeWE" speedFactor="1.02" vaporized=""/>
    <tripinfo id="right_59" depart="302.00" departLane="51o_0" departPos="5.10" departSpeed="0.00" departDelay="11.00" arrival="411.00" arrivalLane="52i_0" arrivalPos="10.00" arrivalSpeed="11.12" duration="109.00" routeLength="1015.10" waitingTime="1.00" waitingCount="1" stopTime="0.00" timeLoss="31.42" rerouteNo="0" devices="tripinfo_right_59" vType="typeWE" speedFactor="0.97" vaporized=""/>
    <tripinfo id="right_60" depart="307.00" departLane="51o_0" departPos="5.10" departSpeed="0.00" departDelay="13.00" arrival="413.00" arrivalLane="52i_0" arrivalPos="10.00" arrivalSpeed="11.62" duration="106.00" routeLength="1015.10" waitingTime="0.00" waitingCount="0" stopTime="0.00" timeLoss="33.16" rerouteNo="0" devices="tripinfo_right_60" vType="typeWE" speedFactor="1.08" vaporized=""/>
    <tripinfo id="right_62" depart="322.00" departLane="51o_0" departPos="5.10" departSpeed="0.00" departDelay="0.00" arrival="415.00" arrivalLane="52i_0" arrivalPos="10.00" arrivalSpeed="11.67" duration="93.00" routeLength="1015.10" waitingTime="0.00" waitingCount="0" stopTime="0.00" timeLoss="16.90" rerouteNo="0" devices="tripinfo_right_62" vType="typeWE" speedFactor="1.02" vaporized=""/>
    <tripinfo id="down_61" depart="318.00" departLane="54o_0" departPos="7.10" departSpeed="0.00" departDelay="0.00" arrival="429.00" arrivalLane="53i_0" arrivalPos="10.00" arrivalSpeed="12.61" duration="111.00" routeLength="1013.10" waitingTime="15.00" waitingCount="1" stopTime="0.00" timeLoss="47.19" rerouteNo="0" devices="tripinfo_down_61" vType="typeNS" speedFactor="1.12" vaporized=""/>
    <tripinfo id="down_63" depart="331.00" departLane="54o_0" departPos="7.10" departSpeed="0.00" departDelay="0.00" arrival="436.00" arrivalLane="53i_0" arrivalPos="10.00" arrivalSpeed="11.50" duration="105.00" routeLength="1013.10" waitingTime="2.00" waitingCount="1" stopTime="0.00" timeLoss="32.43" rerouteNo="0" devices="tripinfo_down_63" vType="typeNS" speedFactor="0.99" vaporized=""/>
    <tripinfo id="down_64" depart="337.00" departLane="54o_0" departPos="7.10" departSpeed="0.00" departDelay="0.00" arrival="440.00" arrivalLane="53i_0" arrivalPos="10.00" arrivalSpeed="11.11" duration="103.00" routeLength="1013.10" waitingTime="0.00" waitingCount="0" stopTime="0.00" timeLoss="26.66" rerouteNo="0" devices="tripinfo_down_64" vType="typeNS" speedFactor="0.94" vaporized=""/>
    <tripinfo id="down_68" depart="344.00" departLane="54o_0" departPos="7.10" departSpeed="0.00" departDelay="0.00" arrival="442.00" arrivalLane="53i_0" arrivalPos="10.00" arrivalSpeed="11.64" duration="98.00" routeLength="1013.10" waitingTime="0.00" waitingCount="0" stopTime="0.00" timeLoss="29.18" rerouteNo="0" devices="tripinfo_down_68" vType="typeNS" speedFactor="1.04" vaporized=""/>
    <tripinfo id="right_66" depart="342.00" departLane="51o_0" departPos="5.10" departSpeed="0.00" departDelay="0.00" arrival="468.00" arrivalLane="52i_0" arrivalPos="10.00" arrivalSpeed="10.41" duration="126.00" routeLength="1015.10" waitingTime="18.00" waitingCount="1" stopTime="0.00" timeLoss="45.06" rerouteNo="0" devices="tripinfo_right_66" vType="typeWE" speedFactor="0.91" vaporized=""/>
    <tripinfo id="left_65" depart="339.00" departLane="52o_0" departPos="5.10" departSpeed="0.00" departDelay="0.00" arrival="469.00" arrivalLane="51i_0" arrivalPos="10.00" arrivalSpeed="10.40" duration="130.00" routeLength="1015.10" waitingTime="23.00" waitingCount="1" stopTime="0.00" timeLoss="48.24" rerouteNo="0" devices="tripinfo_left_65" vType="typeWE" speedFactor="0.88" vaporized=""/>
    <tripinfo id="right_70" depart="354.00" departLane="51o_0" departPos="5.10" departSpeed="0.00" departDelay="0.00" arrival="470.00" arrivalLane="52i_0" arrivalPos="10.00" arrivalSpeed="11.31" duration="116.00" routeLength="1015.10" waitingTime="9.00" waitingCount="1" stopTime="0.00" timeLoss="40.47" rerouteNo="0" devices="tripinfo_right_70" vType="typeWE" speedFactor="1.02" vaporized=""/>
    <tripinfo id="left_67" depart="344.00" departLane="52o_0" departPos="5.10" departSpeed="0.00" departDelay="0.00" arrival="471.00" arrivalLane="51i_0" arrivalPos="10.00" arrivalSpeed="10.77" duration="127.00" routeLength="1015.10" waitingTime="18.00" waitingCount="1" stopTime="0.00" timeLoss="46.82" rerouteNo="0" devices="tripinfo_left_67" vType="typeWE" speedFactor="0.91" vaporized=""/>
    <tripinfo id="right_71" depart="375.00" departLane="51o_0" departPos="5.10" departSpeed="0.00" departDelay="0.00" arrival="471.00" arrivalLane="52i_0" arrivalPos="10.00" arrivalSpeed="11.11" duration="96.00" routeLength="1015.10" waitingTime="0.00" waitingCount="0" stopTime="0.00" timeLoss="18.82" rerouteNo="0" devices="tripinfo_right_71" vType="typeWE" speedFactor="0.97" vaporized=""/>
    <tripinfo id="left_69" depart="352.00" departLane="52o_0" departPos="5.10" departSpeed="0.00" departDelay="6.00" arrival="473.00" arrivalLane="51i_0" arrivalPos="10.00" arrivalSpeed="11.25" duration="121.00" routeLength="1015.10" waitingTime="12.00" waitingCount="1" stopTime="0.00" timeLoss="45.80" rerouteNo="0" devices="tripinfo_left_69" vType="typeWE" speedFactor="1.02" vaporized=""/>
    <tripinfo id="right_74" depart="383.00" departLane="51o_0" departPos="5.10" departSpeed="0.00" departDelay="0.00" arrival="476.00" arrivalLane="52i_0" arrivalPos="10.00" arrivalSpeed="11.14" duration="93.00" routeLength="1015.10" waitingTime="0.00" waitingCount="0" stopTime="0.00" timeLoss="14.88" rerouteNo="0" devices="tripinfo_right_74" vType="typeWE" speedFactor="0.96" vaporized=""/>