<?xml version="1.0" encoding="UTF-8"?>

<!-- generated on Sun Oct 27 19:09:15 2019 by Eclipse SUMO GUI Version 1.2.0
<configuration xmlns:xsi="http://www.w3.org/2001/XMLSchema-instance" xsi:noNamespaceSchemaLocation="http://sumo.dlr.de/xsd/sumoConfiguration.xsd">

    <input>
        <net-file value="simulation_files/sumocfgs/../networks/single_shorter.net.xml"/>
        <route-files value="simulation_files/sumocfgs/../routes/single.rou.xml"/>
        <additional-files value="simulation_files/sumocfgs/../other/single.tlsp.xml"/>
    </input>

    <output>
        <tripinfo-output value="tripinfo_isolated2.xml"/>
    </output>

    <time>
        <begin value="0"/>
        <step-length value="1"/>
    </time>

    <report>
        <verbose value="true"/>
        <no-step-log value="true"/>
    </report>

    <traci_server>
        <remote-port value="52109"/>
    </traci_server>

    <gui_only>
        <tracker-interval value="1"/>
    </gui_only>

</configuration>
-->

<tripinfos xmlns:xsi="http://www.w3.org/2001/XMLSchema-instance" xsi:noNamespaceSchemaLocation="http://sumo.dlr.de/xsd/tripinfo_file.xsd">
    <tripinfo id="left_0_0" depart="0.00" departLane="52o_0" departPos="5.10" departSpeed="0.00" departDelay="0.00" arrival="45.00" arrivalLane="51i_0" arrivalPos="10.00" arrivalSpeed="12.33" duration="45.00" routeLength="415.10" waitingTime="0.00" waitingCount="0" stopTime="0.00" timeLoss="15.24" rerouteNo="0" devices="tripinfo_left_0_0" vType="passenger" speedFactor="1.06" vaporized=""/>
    <tripinfo id="right_0_2" depart="3.00" departLane="51o_0" departPos="5.10" departSpeed="0.00" departDelay="0.00" arrival="48.00" arrivalLane="52i_0" arrivalPos="10.00" arrivalSpeed="11.68" duration="45.00" routeLength="415.10" waitingTime="0.00" waitingCount="0" stopTime="0.00" timeLoss="14.06" rerouteNo="0" devices="tripinfo_right_0_2" vType="passenger" speedFactor="1.01" vaporized=""/>
    <tripinfo id="left_0_1" depart="5.00" departLane="52o_0" departPos="5.10" departSpeed="0.00" departDelay="3.00" arrival="52.00" arrivalLane="51i_0" arrivalPos="10.00" arrivalSpeed="11.16" duration="47.00" routeLength="415.10" waitingTime="0.00" waitingCount="0" stopTime="0.00" timeLoss="14.96" rerouteNo="0" devices="tripinfo_left_0_1" vType="passenger" speedFactor="0.94" vaporized=""/>
    <tripinfo id="left_0_4" depart="11.00" departLane="52o_0" departPos="5.10" departSpeed="0.00" departDelay="1.00" arrival="56.00" arrivalLane="51i_0" arrivalPos="10.00" arrivalSpeed="12.04" duration="45.00" routeLength="415.10" waitingTime="0.00" waitingCount="0" stopTime="0.00" timeLoss="14.03" rerouteNo="0" devices="tripinfo_left_0_4" vType="passenger" speedFactor="1.03" vaporized=""/>
    <tripinfo id="left_0_6" depart="22.00" departLane="52o_0" departPos="5.10" departSpeed="0.00" departDelay="0.00" arrival="66.00" arrivalLane="51i_0" arrivalPos="10.00" arrivalSpeed="12.31" duration="44.00" routeLength="415.10" waitingTime="0.00" waitingCount="0" stopTime="0.00" timeLoss="14.02" rerouteNo="0" devices="tripinfo_left_0_6" vType="passenger" speedFactor="1.05" vaporized=""/>
    <tripinfo id="right_0_7" depart="25.00" departLane="51o_0" departPos="5.10" departSpeed="0.00" departDelay="0.00" arrival="73.00" arrivalLane="52i_0" arrivalPos="10.00" arrivalSpeed="10.07" duration="48.00" routeLength="415.10" waitingTime="0.00" waitingCount="0" stopTime="0.00" timeLoss="14.06" rerouteNo="0" devices="tripinfo_right_0_7" vType="passenger" speedFactor="0.89" vaporized=""/>
    <tripinfo id="right_0_8" depart="31.00" departLane="51o_0" departPos="5.10" departSpeed="0.00" departDelay="0.00" arrival="77.00" arrivalLane="52i_0" arrivalPos="10.00" arrivalSpeed="10.84" duration="46.00" routeLength="415.10" waitingTime="0.00" waitingCount="0" stopTime="0.00" timeLoss="14.16" rerouteNo="0" devices="tripinfo_right_0_8" vType="passenger" speedFactor="0.94" vaporized=""/>
    <tripinfo id="left_0_10" depart="49.00" departLane="52o_0" departPos="5.10" departSpeed="0.00" departDelay="0.00" arrival="93.00" arrivalLane="51i_0" arrivalPos="10.00" arrivalSpeed="11.88" duration="44.00" routeLength="415.10" waitingTime="0.00" waitingCount="0" stopTime="0.00" timeLoss="14.44" rerouteNo="0" devices="tripinfo_left_0_10" vType="passenger" speedFactor="1.09" vaporized=""/>
    <tripinfo id="left_0_11" depart="67.00" departLane="52o_0" departPos="5.10" departSpeed="0.00" departDelay="0.00" arrival="112.00" arrivalLane="51i_0" arrivalPos="10.00" arrivalSpeed="11.97" duration="45.00" routeLength="415.10" waitingTime="0.00" waitingCount="0" stopTime="0.00" timeLoss="14.44" rerouteNo="0" devices="tripinfo_left_0_11" vType="passenger" speedFactor="1.03" vaporized=""/>
    <tripinfo id="up_0_3" depart="4.00" departLane="53o_0" departPos="5.10" departSpeed="0.00" departDelay="0.00" arrival="124.00" arrivalLane="54i_0" arrivalPos="10.00" arrivalSpeed="12.42" duration="120.00" routeLength="415.10" waitingTime="66.00" waitingCount="1" stopTime="0.00" timeLoss="90.40" rerouteNo="0" devices="tripinfo_up_0_3" vType="passenger" speedFactor="1.08" vaporized=""/>
    <tripinfo id="down_0_9" depart="31.00" departLane="54o_0" departPos="5.10" departSpeed="0.00" departDelay="0.00" arrival="128.00" arrivalLane="53i_0" arrivalPos="10.00" arrivalSpeed="9.74" duration="97.00" routeLength="415.10" waitingTime="38.00" waitingCount="1" stopTime="0.00" timeLoss="62.45" rerouteNo="0" devices="tripinfo_down_0_9" vType="passenger" speedFactor="0.86" vaporized=""/>
    <tripinfo id="up_0_5" depart="16.00" departLane="53o_0" departPos="5.10" departSpeed="0.00" departDelay="0.00" arrival="129.00" arrivalLane="54i_0" arrivalPos="10.00" arrivalSpeed="9.55" duration="113.00" routeLength="415.10" waitingTime="54.00" waitingCount="1" stopTime="0.00" timeLoss="78.08" rerouteNo="0" devices="tripinfo_up_0_5" vType="passenger" speedFactor="0.83" vaporized=""/>
    <tripinfo id="down_0_12" depart="72.00" departLane="54o_0" departPos="5.10" departSpeed="0.00" departDelay="0.00" arrival="130.00" arrivalLane="53i_0" arrivalPos="10.00" arrivalSpeed="10.40" duration="58.00" routeLength="415.10" waitingTime="0.00" waitingCount="0" stopTime="0.00" timeLoss="27.58" rerouteNo="0" devices="tripinfo_down_0_12" vType="passenger" speedFactor="1.05" vaporized=""/>
    <tripinfo id="down_0_15" depart="85.00" departLane="54o_0" departPos="5.10" departSpeed="0.00" departDelay="0.00" arrival="132.00" arrivalLane="53i_0" arrivalPos="10.00" arrivalSpeed="10.59" duration="47.00" routeLength="415.10" waitingTime="0.00" waitingCount="0" stopTime="0.00" timeLoss="14.39" rerouteNo="0" devices="tripinfo_down_0_15" vType="passenger" speedFactor="0.93" vaporized=""/>
    <tripinfo id="down_0_17" depart="98.00" departLane="54o_0" departPos="5.10" departSpeed="0.00" departDelay="0.00" arrival="145.00" arrivalLane="53i_0" arrivalPos="10.00" arrivalSpeed="10.85" duration="47.00" routeLength="415.10" waitingTime="0.00" waitingCount="0" stopTime="0.00" timeLoss="14.27" rerouteNo="0" devices="tripinfo_down_0_17" vType="passenger" speedFactor="0.94" vaporized=""/>
    <tripinfo id="up_0_18" depart="103.00" departLane="53o_0" departPos="5.10" departSpeed="0.00" departDelay="0.00" arrival="150.00" arrivalLane="54i_0" arrivalPos="10.00" arrivalSpeed="10.73" duration="47.00" routeLength="415.10" waitingTime="0.00" waitingCount="0" stopTime="0.00" timeLoss="14.13" rerouteNo="0" devices="tripinfo_up_0_18" vType="passenger" speedFactor="0.94" vaporized=""/>
    <tripinfo id="up_0_19" depart="108.00" departLane="53o_0" departPos="5.10" departSpeed="0.00" departDelay="2.00" arrival="151.00" arrivalLane="54i_0" arrivalPos="10.00" arrivalSpeed="11.15" duration="43.00" routeLength="415.10" waitingTime="0.00" waitingCount="0" stopTime="0.00" timeLoss="14.62" rerouteNo="0" devices="tripinfo_up_0_19" vType="passenger" speedFactor="1.16" vaporized=""/>
    <tripinfo id="left_0_13" depart="74.00" departLane="52o_0" departPos="5.10" departSpeed="0.00" departDelay="0.00" arrival="179.00" arrivalLane="51i_0" arrivalPos="10.00" arrivalSpeed="12.16" duration="105.00" routeLength="415.10" waitingTime="51.00" waitingCount="1" stopTime="0.00" timeLoss="76.09" rerouteNo="0" devices="tripinfo_left_0_13" vType="passenger" speedFactor="1.12" vaporized=""/>
    <tripinfo id="right_0_14" depart="81.00" departLane="51o_0" departPos="5.10" departSpeed="0.00" departDelay="0.00" arrival="181.00" arrivalLane="52i_0" arrivalPos="10.00" arrivalSpeed="11.57" duration="100.00" routeLength="415.10" waitingTime="44.00" waitingCount="1" stopTime="0.00" timeLoss="68.92" rerouteNo="0" devices="tripinfo_right_0_14" vType="passenger" speedFactor="0.99" vaporized=""/>
    <tripinfo id="left_0_20" depart="120.00" departLane="52o_0" departPos="5.10" departSpeed="0.00" departDelay="0.00" arrival="183.00" arrivalLane="51i_0" arrivalPos="10.00" arrivalSpeed="11.49" duration="63.00" routeLength="415.10" waitingTime="5.00" waitingCount="1" stopTime="0.00" timeLoss="31.98" rerouteNo="0" devices="tripinfo_left_0_20" vType="passenger" speedFactor="1.02" vaporized=""/>
    <tripinfo id="right_0_16" depart="93.00" departLane="51o_0" departPos="5.10" departSpeed="0.00" departDelay="1.00" arrival="185.00" arrivalLane="52i_0" arrivalPos="10.00" arrivalSpeed="10.12" duration="92.00" routeLength="415.10" waitingTime="32.00" waitingCount="1" stopTime="0.00" timeLoss="58.38" rerouteNo="0" devices="tripinfo_right_0_16" vType="passenger" speedFactor="0.88" vaporized=""/>
    <tripinfo id="left_0_21" depart="125.00" departLane="52o_0" departPos="5.10" departSpeed="0.00" departDelay="2.00" arrival="185.00" arrivalLane="51i_0" arrivalPos="10.00" arrivalSpeed="11.56" duration="60.00" routeLength="415.10" waitingTime="2.00" waitingCount="1" stopTime="0.00" timeLoss="28.60" rerouteNo="0" devices="tripinfo_left_0_21" vType="passenger" speedFactor="1.01" vaporized=""/>
    <tripinfo id="left_0_22" depart="131.00" departLane="52o_0" departPos="5.10" departSpeed="0.00" departDelay="6.00" arrival="187.00" arrivalLane="51i_0" arrivalPos="10.00" arrivalSpeed="11.11" duration="56.00" routeLength="415.10" waitingTime="0.00" waitingCount="0" stopTime="0.00" timeLoss="24.39" rerouteNo="0" devices="tripinfo_left_0_22" vType="passenger" speedFactor="0.98" vaporized=""/>
    <tripinfo id="right_0_23" depart="126.00" departLane="51o_0" departPos="5.10" departSpeed="0.00" departDelay="0.00" arrival="187.00" arrivalLane="52i_0" arrivalPos="10.00" arrivalSpeed="10.49" duration="61.00" routeLength="415.10" waitingTime="1.00" waitingCount="1" stopTime="0.00" timeLoss="27.55" rerouteNo="0" devices="tripinfo_right_0_23" vType="passenger" speedFactor="0.89" vaporized=""/>
    <tripinfo id="right_0_25" depart="132.00" departLane="51o_0" departPos="5.10" departSpeed="0.00" departDelay="0.00" arrival="189.00" arrivalLane="52i_0" arrivalPos="10.00" arrivalSpeed="10.08" duration="57.00" routeLength="415.10" waitingTime="0.00" waitingCount="0" stopTime="0.00" timeLoss="23.60" rerouteNo="0" devices="tripinfo_right_0_25" vType="passenger" speedFactor="0.87" vaporized=""/>
    <tripinfo id="left_0_27" depart="147.00" departLane="52o_0" departPos="5.10" departSpeed="0.00" departDelay="0.00" arrival="195.00" arrivalLane="51i_0" arrivalPos="10.00" arrivalSpeed="10.79" duration="48.00" routeLength="415.10" waitingTime="0.00" waitingCount="0" stopTime="0.00" timeLoss="15.36" rerouteNo="0" devices="tripinfo_left_0_27" vType="passenger" speedFactor="0.95" vaporized=""/>
    <tripinfo id="left_0_29" depart="159.00" departLane="52o_0" departPos="5.10" departSpeed="0.00" departDelay="0.00" arrival="206.00" arrivalLane="51i_0" arrivalPos="10.00" arrivalSpeed="10.76" duration="47.00" routeLength="415.10" waitingTime="0.00" waitingCount="0" stopTime="0.00" timeLoss="14.38" rerouteNo="0" devices="tripinfo_left_0_29" vType="passenger" speedFactor="0.93" vaporized=""/>
    <tripinfo id="right_0_30" depart="171.00" departLane="51o_0" departPos="5.10" departSpeed="0.00" departDelay="0.00" arrival="214.00" arrivalLane="52i_0" arrivalPos="10.00" arrivalSpeed="13.63" duration="43.00" routeLength="415.10" waitingTime="0.00" waitingCount="0" stopTime="0.00" timeLoss="14.11" rerouteNo="0" devices="tripinfo_right_0_30" vType="passenger" speedFactor="1.18" vaporized=""/>
    <tripinfo id="right_0_31" depart="179.00" departLane="51o_0" departPos="5.10" departSpeed="0.00" departDelay="0.00" arrival="222.00" arrivalLane="52i_0" arrivalPos="10.00" arrivalSpeed="13.34" duration="43.00" routeLength="415.10" waitingTime="0.00" waitingCount="0" stopTime="0.00" timeLoss="13.88" rerouteNo="0" devices="tripinfo_right_0_31" vType="passenger" speedFactor="1.15" vaporized=""/>
    <tripinfo id="right_0_32" depart="185.00" departLane="51o_0" departPos="5.10" departSpeed="0.00" departDelay="3.00" arrival="231.00" arrivalLane="52i_0" arrivalPos="10.00" arrivalSpeed="11.36" duration="46.00" routeLength="415.10" waitingTime="0.00" waitingCount="0" stopTime="0.00" timeLoss="14.64" rerouteNo="0" devices="tripinfo_right_0_32" vType="passenger" speedFactor="1.01" vaporized=""/>
    <tripinfo id="left_0_33" depart="204.00" departLane="52o_0" departPos="5.10" departSpeed="0.00" departDelay="0.00" arrival="246.00" arrivalLane="51i_0" arrivalPos="10.00" arrivalSpeed="12.81" duration="42.00" routeLength="415.10" waitingTime="0.00" waitingCount="0" stopTime="0.00" timeLoss="13.74" rerouteNo="0" devices="tripinfo_left_0_33" vType="passenger" speedFactor="1.17" vaporized=""/>
    <tripinfo id="up_0_26" depart="135.00" departLane="53o_0" departPos="5.10" departSpeed="0.00" departDelay="0.00" arrival="269.00" arrivalLane="54i_0" arrivalPos="10.00" arrivalSpeed="10.61" duration="134.00" routeLength="415.10" waitingTime="77.00" waitingCount="1" stopTime="0.00" timeLoss="101.03" rerouteNo="0" devices="tripinfo_up_0_26" vType="passenger" speedFactor="0.92" vaporized=""/>
    <tripinfo id="down_0_24" depart="129.00" departLane="54o_0" departPos="5.10" departSpeed="0.00" departDelay="0.00" arrival="270.00" arrivalLane="53i_0" arrivalPos="10.00" arrivalSpeed="9.67" duration="141.00" routeLength="415.10" waitingTime="81.00" waitingCount="1" stopTime="0.00" timeLoss="105.22" rerouteNo="0" devices="tripinfo_down_0_24" vType="passenger" speedFactor="0.83" vaporized=""/>
    <tripinfo id="down_0_28" depart="151.00" departLane="54o_0" departPos="5.10" departSpeed="0.00" departDelay="2.00" arrival="271.00" arrivalLane="53i_0" arrivalPos="10.00" arrivalSpeed="9.79" duration="120.00" routeLength="415.10" waitingTime="62.00" waitingCount="1" stopTime="0.00" timeLoss="91.41" rerouteNo="0" devices="tripinfo_down_0_28" vType="passenger" speedFactor="1.13" vaporized=""/>
    <tripinfo id="up_0_35" depart="212.00" departLane="53o_0" departPos="5.10" departSpeed="0.00" departDelay="0.00" arrival="271.00" arrivalLane="54i_0" arrivalPos="10.00" arrivalSpeed="11.38" duration="59.00" routeLength="415.10" waitingTime="1.00" waitingCount="1" stopTime="0.00" timeLoss="27.75" rerouteNo="0" devices="tripinfo_up_0_35" vType="passenger" speedFactor="1.02" vaporized=""/>
    <tripinfo id="down_0_34" depart="206.00" departLane="54o_0" departPos="5.10" departSpeed="0.00" departDelay="0.00" arrival="273.00" arrivalLane="53i_0" arrivalPos="10.00" arrivalSpeed="10.22" duration="67.00" routeLength="415.10" waitingTime="8.00" waitingCount="1" stopTime="0.00" timeLoss="36.04" rerouteNo="0" devices="tripinfo_down_0_34" vType="passenger" speedFactor="0.99" vaporized=""/>
    <tripinfo id="down_0_37" depart="220.00" departLane="54o_0" departPos="5.10" departSpeed="0.00" departDelay="0.00" arrival="275.00" arrivalLane="53i_0" arrivalPos="10.00" arrivalSpeed="10.28" duration="55.00" routeLength="415.10" waitingTime="0.00" waitingCount="0" stopTime="0.00" timeLoss="26.75" rerouteNo="0" devices="tripinfo_down_0_37" vType="passenger" speedFactor="1.18" vaporized=""/>
    <tripinfo id="down_0_40" depart="241.00" departLane="54o_0" departPos="5.10" departSpeed="0.00" departDelay="0.00" arrival="285.00" arrivalLane="53i_0" arrivalPos="10.00" arrivalSpeed="11.23" duration="44.00" routeLength="415.10" waitingTime="0.00" waitingCount="0" stopTime="0.00" timeLoss="13.70" rerouteNo="0" devices="tripinfo_down_0_40" vType="passenger" speedFactor="1.03" vaporized=""/>
    <tripinfo id="up_0_41" depart="248.00" departLane="53o_0" departPos="5.10" departSpeed="0.00" departDelay="0.00" arrival="294.00" arrivalLane="54i_0" arrivalPos="10.00" arrivalSpeed="11.12" duration="46.00" routeLength="415.10" waitingTime="0.00" waitingCount="0" stopTime="0.00" timeLoss="13.59" rerouteNo="0" devices="tripinfo_up_0_41" vType="passenger" speedFactor="0.96" vaporized=""/>
    <tripinfo id="down_0_43" depart="256.00" departLane="54o_0" departPos="5.10" departSpeed="0.00" departDelay="0.00" arrival="300.00" arrivalLane="53i_0" arrivalPos="10.00" arrivalSpeed="12.16" duration="44.00" routeLength="415.10" waitingTime="0.00" waitingCount="0" stopTime="0.00" timeLoss="13.92" rerouteNo="0" devices="tripinfo_down_0_43" vType="passenger" speedFactor="1.04" vaporized=""/>
    <tripinfo id="left_0_42" depart="253.00" departLane="52o_0" departPos="5.10" departSpeed="0.00" departDelay="0.00" arrival="313.00" arrivalLane="51i_0" arrivalPos="10.00" arrivalSpeed="12.64" duration="60.00" routeLength="415.10" waitingTime="4.00" waitingCount="1" stopTime="0.00" timeLoss="30.05" rerouteNo="0" devices="tripinfo_left_0_42" vType="passenger" speedFactor="1.09" vaporized=""/>
    <tripinfo id="right_0_36" depart="216.00" departLane="51o_0" departPos="5.10" departSpeed="0.00" departDelay="0.00" arrival="315.00" arrivalLane="52i_0" arrivalPos="10.00" arrivalSpeed="11.48" duration="99.00" routeLength="415.10" waitingTime="40.00" waitingCount="1" stopTime="0.00" timeLoss="67.31" rerouteNo="0" devices="tripinfo_right_0_36" vType="passenger" speedFactor="0.97" vaporized=""/>
    <tripinfo id="left_0_44" depart="258.00" departLane="52o_0" departPos="5.10" departSpeed="0.00" departDelay="0.00" arrival="315.00" arrivalLane="51i_0" arrivalPos="10.00" arrivalSpeed="12.23" duration="57.00" routeLength="415.10" waitingTime="2.00" waitingCount="1" stopTime="0.00" timeLoss="26.94" rerouteNo="0" devices="tripinfo_left_0_44" vType="passenger" speedFactor="1.04" vaporized=""/>
    <tripinfo id="right_0_38" depart="227.00" departLane="51o_0" departPos="5.10" departSpeed="0.00" departDelay="0.00" arrival="317.00" arrivalLane="52i_0" arrivalPos="10.00" arrivalSpeed="12.61" duration="90.00" routeLength="415.10" waitingTime="33.00" waitingCount="1" stopTime="0.00" timeLoss="60.38" rerouteNo="0" devices="tripinfo_right_0_38" vType="passenger" speedFactor="1.10" vaporized=""/>
    <tripinfo id="left_0_46" depart="263.00" departLane="52o_0" departPos="5.10" departSpeed="0.00" departDelay="1.00" arrival="318.00" arrivalLane="51i_0" arrivalPos="10.00" arrivalSpeed="11.36" duration="55.00" routeLength="415.10" waitingTime="0.00" waitingCount="0" stopTime="0.00" timeLoss="23.80" rerouteNo="0" devices="tripinfo_left_0_46" vType="passenger" speedFactor="1.00" vaporized=""/>
    <tripinfo id="right_0_39" depart="239.00" departLane="51o_0" departPos="5.10" departSpeed="0.00" departDelay="0.00" arrival="321.00" arrivalLane="52i_0" arrivalPos="10.00" arrivalSpeed="10.27" duration="82.00" routeLength="415.10" waitingTime="23.00" waitingCount="1" stopTime="0.00" timeLoss="48.53" rerouteNo="0" devices="tripinfo_right_0_39" vType="passenger" speedFactor="0.90" vaporized=""/>
    <tripinfo id="left_0_47" depart="281.00" departLane="52o_0" departPos="5.10" departSpeed="0.00" departDelay="0.00" arrival="329.00" arrivalLane="51i_0" arrivalPos="10.00" arrivalSpeed="10.51" duration="48.00" routeLength="415.10" waitingTime="0.00" waitingCount="0" stopTime="0.00" timeLoss="14.42" rerouteNo="0" devices="tripinfo_left_0_47" vType="passenger" speedFactor="0.90" vaporized=""/>
    <tripinfo id="left_0_48" depart="286.00" departLane="52o_0" departPos="5.10" departSpeed="0.00" departDelay="3.00" arrival="334.00" arrivalLane="51i_0" arrivalPos="10.00" arrivalSpeed="10.26" duration="48.00" routeLength="415.10" waitingTime="0.00" waitingCount="0" stopTime="0.00" timeLoss="14.43" rerouteNo="0" devices="tripinfo_left_0_48" vType="passenger" speedFactor="0.88" vaporized=""/>
    <tripinfo id="right_0_52" depart="292.00" departLane="51o_0" departPos="5.10" departSpeed="0.00" departDelay="0.00" arrival="337.00" arrivalLane="52i_0" arrivalPos="10.00" arrivalSpeed="12.07" duration="45.00" routeLength="415.10" waitingTime="0.00" waitingCount="0" stopTime="0.00" timeLoss="14.36" rerouteNo="0" devices="tripinfo_right_0_52" vType="passenger" speedFactor="1.02" vaporized=""/>
    <tripinfo id="left_0_50" depart="291.00" departLane="52o_0" departPos="5.10" departSpeed="0.00" departDelay="4.00" arrival="340.00" arrivalLane="51i_0" arrivalPos="10.00" arrivalSpeed="9.85" duration="49.00" routeLength="415.10" waitingTime="0.00" waitingCount="0" stopTime="0.00" timeLoss="14.62" rerouteNo="0" devices="tripinfo_left_0_50" vType="passenger" speedFactor="0.85" vaporized=""/>
    <tripinfo id="right_0_54" depart="297.00" departLane="51o_0" departPos="5.10" departSpeed="0.00" departDelay="1.00" arrival="341.00" arrivalLane="52i_0" arrivalPos="10.00" arrivalSpeed="11.52" duration="44.00" routeLength="415.10" waitingTime="0.00" waitingCount="0" stopTime="0.00" timeLoss="13.01" rerouteNo="0" devices="tripinfo_right_0_54" vType="passenger" speedFactor="1.00" vaporized=""/>
    <tripinfo id="left_0_51" depart="296.00" departLane="52o_0" departPos="5.10" departSpeed="0.00" departDelay="5.00" arrival="342.00" arrivalLane="51i_0" arrivalPos="10.00" arrivalSpeed="10.78" duration="46.00" routeLength="415.10" waitingTime="0.00" waitingCount="0" stopTime="0.00" timeLoss="17.36" rerouteNo="0" devices="tripinfo_left_0_51" vType="passenger" speedFactor="1.17" vaporized=""/>
    <tripinfo id="left_0_55" depart="301.00" departLane="52o_0" departPos="5.10" departSpeed="0.00" departDelay="5.00" arrival="345.00" arrivalLane="51i_0" arrivalPos="10.00" arrivalSpeed="11.66" duration="44.00" routeLength="415.10" waitingTime="0.00" waitingCount="0" stopTime="0.00" timeLoss="13.15" rerouteNo="0" devices="tripinfo_left_0_55" vType="passenger" speedFactor="1.00" vaporized=""/>
    <tripinfo id="left_0_56" depart="306.00" departLane="52o_0" departPos="5.10" departSpeed="0.00" departDelay="8.00" arrival="355.00" arrivalLane="51i_0" arrivalPos="10.00" arrivalSpeed="10.36" duration="49.00" routeLength="415.10" waitingTime="0.00" waitingCount="0" stopTime="0.00" timeLoss="15.41" rerouteNo="0" devices="tripinfo_left_0_56" vType="passenger" speedFactor="0.90" vaporized=""/>
    <tripinfo id="down_0_45" depart="261.00" departLane="54o_0" departPos="5.10" departSpeed="0.00" departDelay="3.00" arrival="378.00" arrivalLane="53i_0" arrivalPos="10.00" arrivalSpeed="12.49" duration="117.00" routeLength="415.10" waitingTime="60.00" waitingCount="1" stopTime="0.00" timeLoss="87.02" rerouteNo="0" devices="tripinfo_down_0_45" vType="passenger" speedFactor="1.09" vaporized=""/>
    <tripinfo id="down_0_53" depart="294.00" departLane="54o_0" departPos="5.10" departSpeed="0.00" departDelay="1.00" arrival="380.00" arrivalLane="53i_0" arrivalPos="10.00" arrivalSpeed="12.74" duration="86.00" routeLength="415.10" waitingTime="30.00" waitingCount="1" stopTime="0.00" timeLoss="56.12" rerouteNo="0" devices="tripinfo_down_0_53" vType="passenger" speedFactor="1.10" vaporized=""/>
    <tripinfo id="up_0_49" depart="285.00" departLane="53o_0" departPos="5.10" departSpeed="0.00" departDelay="1.00" arrival="381.00" arrivalLane="54i_0" arrivalPos="10.00" arrivalSpeed="9.60" duration="96.00" routeLength="415.10" waitingTime="38.00" waitingCount="1" stopTime="0.00" timeLoss="61.91" rerouteNo="0" devices="tripinfo_up_0_49" vType="passenger" speedFactor="0.85" vaporized=""/>
    <tripinfo id="down_0_57" depart="330.00" departLane="54o_0" departPos="5.10" departSpeed="0.00" departDelay="0.00" arrival="381.00" arrivalLane="53i_0" arrivalPos="10.00" arrivalSpeed="12.67" duration="51.00" routeLength="415.10" waitingTime="0.00" waitingCount="0" stopTime="0.00" timeLoss="22.17" rerouteNo="0" devices="tripinfo_down_0_57" vType="passenger" speedFactor="1.14" vaporized=""/>
    <tripinfo id="up_0_59" depart="344.00" departLane="53o_0" departPos="5.10" departSpeed="0.00" departDelay="0.00" arrival="390.00" arrivalLane="54i_0" arrivalPos="10.00" arrivalSpeed="11.34" duration="46.00" routeLength="415.10" waitingTime="0.00" waitingCount="0" stopTime="0.00" timeLoss="13.86" rerouteNo="0" devices="tripinfo_up_0_59" vType="passenger" speedFactor="0.97" vaporized=""/>
    <tripinfo id="up_0_60" depart="349.00" departLane="53o_0" departPos="5.10" departSpeed="0.00" departDelay="2.00" arrival="392.00" arrivalLane="54i_0" arrivalPos="10.00" arrivalSpeed="12.73" duration="43.00" routeLength="415.10" waitingTime="0.00" waitingCount="0" stopTime="0.00" timeLoss="13.40" rerouteNo="0" devices="tripinfo_up_0_60" vType="passenger" speedFactor="1.08" vaporized=""/>
    <tripinfo id="left_0_58" depart="343.00" departLane="52o_0" departPos="5.10" departSpeed="0.00" departDelay="0.00" arrival="459.00" arrivalLane="51i_0" arrivalPos="10.00" arrivalSpeed="11.17" duration="116.00" routeLength="415.10" waitingTime="59.00" waitingCount="1" stopTime="0.00" timeLoss="85.53" rerouteNo="0" devices="tripinfo_left_0_58" vType="passenger" speedFactor="1.02" vaporized=""/>
    <tripinfo id="right_0_62" depart="352.00" departLane="51o_0" departPos="5.10" departSpeed="0.00" departDelay="0.00" arrival="459.00" arrivalLane="52i_0" arrivalPos="10.00" arrivalSpeed="11.55" duration="107.00" routeLength="415.10" waitingTime="50.00" waitingCount="1" stopTime="0.00" timeLoss="76.47" rerouteNo="0" devices="tripinfo_right_0_62" vType="passenger" speedFactor="1.02" vaporized=""/>
    <tripinfo id="left_0_61" depart="350.00" departLane="52o_0" departPos="5.10" departSpeed="0.00" departDelay="0.00" arrival="461.00" arrivalLane="51i_0" arrivalPos="10.00" arrivalSpeed="12.17" duration="111.00" routeLength="415.10" waitingTime="54.00" waitingCount="1" stopTime="0.00" timeLoss="81.89" rerouteNo="0" devices="tripinfo_left_0_61" vType="passenger" speedFactor="1.12" vaporized=""/>
    <tripinfo id="left_0_63" depart="357.00" departLane="52o_0" departPos="5.10" departSpeed="0.00" departDelay="0.00" arrival="464.00" arrivalLane="51i_0" arrivalPos="10.00" arrivalSpeed="11.31" duration="107.00" routeLength="415.10" waitingTime="50.00" waitingCount="1" stopTime="0.00" timeLoss="75.34" rerouteNo="0" devices="tripinfo_left_0_63" vType="passenger" speedFactor="0.99" vaporized=""/>
    <tripinfo id="right_0_65" depart="363.00" departLane="51o_0" departPos="5.10" departSpeed="0.00" departDelay="0.00" arrival="464.00" arrivalLane="52i_0" arrivalPos="10.00" arrivalSpeed="10.36" duration="101.00" routeLength="415.10" waitingTime="42.00" waitingCount="1" stopTime="0.00" timeLoss="67.09" rerouteNo="0" devices="tripinfo_right_0_65" vType="passenger" speedFactor="0.88" vaporized=""/>
    <tripinfo id="right_0_68" depart="389.00" departLane="51o_0" departPos="5.10" departSpeed="0.00" departDelay="0.00" arrival="465.00" arrivalLane="52i_0" arrivalPos="10.00" arrivalSpeed="10.46" duration="76.00" routeLength="415.10" waitingTime="18.00" waitingCount="1" stopTime="0.00" timeLoss="45.96" rerouteNo="0" devices="tripinfo_right_0_68" vType="passenger" speedFactor="1.04" vaporized=""/>
    <tripinfo id="left_0_64" depart="362.00" departLane="52o_0" departPos="5.10" departSpeed="0.00" departDelay="3.00" arrival="466.00" arrivalLane="51i_0" arrivalPos="10.00" arrivalSpeed="10.75" duration="104.00" routeLength="415.10" waitingTime="46.00" waitingCount="1" stopTime="0.00" timeLoss="71.97" rerouteNo="0" devices="tripinfo_left_0_64" vType="passenger" speedFactor="0.94" vaporized=""/>
    <tripinfo id="right_0_69" depart="402.00" departLane="51o_0" departPos="5.10" departSpeed="0.00" departDelay="0.00" arrival="467.00" arrivalLane="52i_0" arrivalPos="10.00" arrivalSpeed="10.82" duration="65.00" routeLength="415.10" waitingTime="5.00" waitingCount="1" stopTime="0.00" timeLoss="34.44" rerouteNo="0" devices="tripinfo_right_0_69" vType="passenger" speedFactor="1.02" vaporized=""/>
    <tripinfo id="left_0_66" depart="372.00" departLane="52o_0" departPos="5.10" departSpeed="0.00" departDelay="0.00" arrival="469.00" arrivalLane="51i_0" arrivalPos="10.00" arrivalSpeed="10.67" duration="97.00" routeLength="415.10" waitingTime="38.00" waitingCount="1" stopTime="0.00" timeLoss="63.85" rerouteNo="0" devices="tripinfo_left_0_66" vType="passenger" speedFactor="0.91" vaporized=""/>
    <tripinfo id="left_0_67" depart="377.00" departLane="52o_0" departPos="5.10" departSpeed="0.00" departDelay="1.00" arrival="471.00" arrivalLane="51i_0" arrivalPos="10.00" arrivalSpeed="10.52" duration="94.00" routeLength="415.10" waitingTime="34.00" waitingCount="1" stopTime="0.00" timeLoss="60.87" rerouteNo="0" devices="tripinfo_left_0_67" vType="passenger" speedFactor="0.91" vaporized=""/>
    <tripinfo id="left_0_70" depart="402.00" departLane="52o_0" departPos="5.10" departSpeed="0.00" departDelay="0.00" arrival="473.00" arrivalLane="51i_0" arrivalPos="10.00" arrivalSpeed="11.35" duration="71.00" routeLength="415.10" waitingTime="12.00" waitingCount="1" stopTime="0.00" timeLoss="39.82" rerouteNo="0" devices="tripinfo_left_0_70" vType="passenger" speedFactor="1.02" vaporized=""/>
    <tripinfo id="left_0_71" depart="414.00" departLane="52o_0" departPos="5.10" departSpeed="0.00" departDelay="0.00" arrival="475.00" arrivalLane="51i_0" arrivalPos="10.00" arrivalSpeed="11.20" duration="61.00" routeLength="415.10" waitingTime="2.00" waitingCount="1" stopTime="0.00" timeLoss="28.95" rerouteNo="0" devices="tripinfo_left_0_71" vType="passenger" speedFactor="0.97" vaporized=""/>