<?xml version="1.0" encoding="UTF-8"?>

<!-- generated on Thu Oct 24 02:53:23 2019 by Eclipse SUMO GUI Version 1.2.0
<configuration xmlns:xsi="http://www.w3.org/2001/XMLSchema-instance" xsi:noNamespaceSchemaLocation="http://sumo.dlr.de/xsd/sumoConfiguration.xsd">

    <input>
        <net-file value="data/cross.net.xml"/>
        <route-files value="data/cross.rou.xml"/>
        <additional-files value="data/cross.tlsp.xml"/>
    </input>

    <output>
        <tripinfo-output value="tripinfo_isolated2.xml"/>
    </output>

    <time>
        <begin value="0"/>
        <step-length value="1"/>
    </time>

    <report>
        <verbose value="true"/>
        <no-step-log value="true"/>
    </report>

    <traci_server>
        <remote-port value="39067"/>
    </traci_server>

    <gui_only>
        <tracker-interval value="1"/>
    </gui_only>

</configuration>
-->

<tripinfos xmlns:xsi="http://www.w3.org/2001/XMLSchema-instance" xsi:noNamespaceSchemaLocation="http://sumo.dlr.de/xsd/tripinfo_file.xsd">
    <tripinfo id="left_0" depart="0.00" departLane="52o_0" departPos="5.10" departSpeed="0.00" departDelay="0.00" arrival="88.00" arrivalLane="51i_0" arrivalPos="10.00" arrivalSpeed="12.16" duration="88.00" routeLength="1015.10" waitingTime="0.00" waitingCount="0" stopTime="0.00" timeLoss="14.62" rerouteNo="0" devices="tripinfo_left_0" vType="passenger" speedFactor="1.06" vaporized=""/>
    <tripinfo id="right_2" depart="3.00" departLane="51o_0" departPos="5.10" departSpeed="0.00" departDelay="0.00" arrival="94.00" arrivalLane="52i_0" arrivalPos="10.00" arrivalSpeed="11.56" duration="91.00" routeLength="1015.10" waitingTime="0.00" waitingCount="0" stopTime="0.00" timeLoss="15.01" rerouteNo="0" devices="tripinfo_right_2" vType="passenger" speedFactor="1.01" vaporized=""/>
    <tripinfo id="left_1" depart="5.00" departLane="52o_0" departPos="5.10" departSpeed="0.00" departDelay="3.00" arrival="99.00" arrivalLane="51i_0" arrivalPos="10.00" arrivalSpeed="10.62" duration="94.00" routeLength="1015.10" waitingTime="0.00" waitingCount="0" stopTime="0.00" timeLoss="14.85" rerouteNo="0" devices="tripinfo_left_1" vType="passenger" speedFactor="0.94" vaporized=""/>
    <tripinfo id="up_3" depart="4.00" departLane="53o_0" departPos="5.10" departSpeed="0.00" departDelay="0.00" arrival="111.00" arrivalLane="54i_0" arrivalPos="10.00" arrivalSpeed="12.40" duration="107.00" routeLength="1015.10" waitingTime="7.00" waitingCount="1" stopTime="0.00" timeLoss="34.48" rerouteNo="0" devices="tripinfo_up_3" vType="passenger" speedFactor="1.08" vaporized=""/>
    <tripinfo id="down_4" depart="6.00" departLane="54o_0" departPos="5.10" departSpeed="0.00" departDelay="0.00" arrival="112.00" arrivalLane="53i_0" arrivalPos="10.00" arrivalSpeed="11.88" duration="106.00" routeLength="1015.10" waitingTime="5.00" waitingCount="1" stopTime="0.00" timeLoss="31.21" rerouteNo="0" devices="tripinfo_down_4" vType="passenger" speedFactor="1.03" vaporized=""/>
    <tripinfo id="left_5" depart="10.00" departLane="52o_0" departPos="5.10" departSpeed="0.00" departDelay="0.00" arrival="112.00" arrivalLane="51i_0" arrivalPos="10.00" arrivalSpeed="10.47" duration="102.00" routeLength="1015.10" waitingTime="0.00" waitingCount="0" stopTime="0.00" timeLoss="15.60" rerouteNo="0" devices="tripinfo_left_5" vType="passenger" speedFactor="0.83" vaporized=""/>
    <tripinfo id="down_10" depart="23.00" departLane="54o_0" departPos="5.10" departSpeed="0.00" departDelay="0.00" arrival="114.00" arrivalLane="53i_0" arrivalPos="10.00" arrivalSpeed="12.41" duration="91.00" routeLength="1015.10" waitingTime="0.00" waitingCount="0" stopTime="0.00" timeLoss="18.27" rerouteNo="0" devices="tripinfo_down_10" vType="passenger" speedFactor="1.09" vaporized=""/>
    <tripinfo id="down_13" depart="31.00" departLane="54o_0" departPos="5.10" departSpeed="0.00" departDelay="0.00" arrival="116.00" arrivalLane="53i_0" arrivalPos="10.00" arrivalSpeed="12.69" duration="85.00" routeLength="1015.10" waitingTime="0.00" waitingCount="0" stopTime="0.00" timeLoss="13.62" rerouteNo="0" devices="tripinfo_down_13" vType="passenger" speedFactor="1.12" vaporized=""/>
    <tripinfo id="up_7" depart="16.00" departLane="53o_0" departPos="5.10" departSpeed="0.00" departDelay="0.00" arrival="121.00" arrivalLane="54i_0" arrivalPos="10.00" arrivalSpeed="10.53" duration="105.00" routeLength="1015.10" waitingTime="0.00" waitingCount="0" stopTime="0.00" timeLoss="22.84" rerouteNo="0" devices="tripinfo_up_7" vType="passenger" speedFactor="0.89" vaporized=""/>
    <tripinfo id="up_14" depart="32.00" departLane="53o_0" departPos="5.10" departSpeed="0.00" departDelay="0.00" arrival="123.00" arrivalLane="54i_0" arrivalPos="10.00" arrivalSpeed="11.34" duration="91.00" routeLength="1015.10" waitingTime="0.00" waitingCount="0" stopTime="0.00" timeLoss="14.68" rerouteNo="0" devices="tripinfo_up_14" vType="passenger" speedFactor="0.99" vaporized=""/>
    <tripinfo id="down_15" depart="36.00" departLane="54o_0" departPos="5.10" departSpeed="0.00" departDelay="3.00" arrival="131.00" arrivalLane="53i_0" arrivalPos="10.00" arrivalSpeed="10.84" duration="95.00" routeLength="1015.10" waitingTime="0.00" waitingCount="0" stopTime="0.00" timeLoss="14.94" rerouteNo="0" devices="tripinfo_down_15" vType="passenger" speedFactor="0.93" vaporized=""/>
    <tripinfo id="right_6" depart="11.00" departLane="51o_0" departPos="5.10" departSpeed="0.00" departDelay="0.00" arrival="152.00" arrivalLane="52i_0" arrivalPos="10.00" arrivalSpeed="11.45" duration="141.00" routeLength="1015.10" waitingTime="41.00" waitingCount="1" stopTime="0.00" timeLoss="66.99" rerouteNo="0" devices="tripinfo_right_6" vType="passenger" speedFactor="1.05" vaporized=""/>
    <tripinfo id="right_8" depart="22.00" departLane="51o_0" departPos="5.10" departSpeed="0.00" departDelay="0.00" arrival="159.00" arrivalLane="52i_0" arrivalPos="10.00" arrivalSpeed="10.75" duration="137.00" routeLength="1015.10" waitingTime="33.00" waitingCount="1" stopTime="0.00" timeLoss="57.54" rerouteNo="0" devices="tripinfo_right_8" vType="passenger" speedFactor="0.94" vaporized=""/>
    <tripinfo id="right_11" depart="27.00" departLane="51o_0" departPos="5.10" departSpeed="0.00" departDelay="2.00" arrival="160.00" arrivalLane="52i_0" arrivalPos="10.00" arrivalSpeed="10.73" duration="133.00" routeLength="1015.10" waitingTime="27.00" waitingCount="1" stopTime="0.00" timeLoss="58.34" rerouteNo="0" devices="tripinfo_right_11" vType="passenger" speedFactor="1.03" vaporized=""/>
    <tripinfo id="left_9" depart="22.00" departLane="52o_0" departPos="5.10" departSpeed="0.00" departDelay="0.00" arrival="161.00" arrivalLane="51i_0" arrivalPos="10.00" arrivalSpeed="9.90" duration="139.00" routeLength="1015.10" waitingTime="30.00" waitingCount="1" stopTime="0.00" timeLoss="55.51" rerouteNo="0" devices="tripinfo_left_9" vType="passenger" speedFactor="0.86" vaporized=""/>
    <tripinfo id="right_12" depart="32.00" departLane="51o_0" departPos="5.10" departSpeed="0.00" departDelay="1.00" arrival="162.00" arrivalLane="52i_0" arrivalPos="10.00" arrivalSpeed="11.84" duration="130.00" routeLength="1015.10" waitingTime="25.00" waitingCount="1" stopTime="0.00" timeLoss="55.99" rerouteNo="0" devices="tripinfo_right_12" vType="passenger" speedFactor="1.05" vaporized=""/>
    <tripinfo id="left_18" depart="41.00" departLane="52o_0" departPos="5.10" departSpeed="0.00" departDelay="0.00" arrival="163.00" arrivalLane="51i_0" arrivalPos="10.00" arrivalSpeed="10.35" duration="122.00" routeLength="1015.10" waitingTime="12.00" waitingCount="1" stopTime="0.00" timeLoss="42.75" rerouteNo="0" devices="tripinfo_left_18" vType="passenger" speedFactor="0.94" vaporized=""/>
    <tripinfo id="left_20" depart="49.00" departLane="52o_0" departPos="5.10" departSpeed="0.00" departDelay="0.00" arrival="165.00" arrivalLane="51i_0" arrivalPos="10.00" arrivalSpeed="11.05" duration="116.00" routeLength="1015.10" waitingTime="7.00" waitingCount="1" stopTime="0.00" timeLoss="40.45" rerouteNo="0" devices="tripinfo_left_20" vType="passenger" speedFactor="1.02" vaporized=""/>
    <tripinfo id="left_26" depart="67.00" departLane="52o_0" departPos="5.10" departSpeed="0.00" departDelay="0.00" arrival="167.00" arrivalLane="51i_0" arrivalPos="10.00" arrivalSpeed="10.61" duration="100.00" routeLength="1015.10" waitingTime="0.00" waitingCount="0" stopTime="0.00" timeLoss="19.40" rerouteNo="0" devices="tripinfo_left_26" vType="passenger" speedFactor="0.92" vaporized=""/>
    <tripinfo id="right_16" depart="37.00" departLane="51o_0" departPos="5.10" departSpeed="0.00" departDelay="3.00" arrival="169.00" arrivalLane="52i_0" arrivalPos="10.00" arrivalSpeed="10.11" duration="132.00" routeLength="1015.10" waitingTime="20.00" waitingCount="1" stopTime="0.00" timeLoss="49.23" rerouteNo="0" devices="tripinfo_right_16" vType="passenger" speedFactor="0.88" vaporized=""/>
    <tripinfo id="left_29" depart="74.00" departLane="52o_0" departPos="5.10" departSpeed="0.00" departDelay="0.00" arrival="169.00" arrivalLane="51i_0" arrivalPos="10.00" arrivalSpeed="10.81" duration="95.00" routeLength="1015.10" waitingTime="0.00" waitingCount="0" stopTime="0.00" timeLoss="15.12" rerouteNo="0" devices="tripinfo_left_29" vType="passenger" speedFactor="0.93" vaporized=""/>
    <tripinfo id="right_17" depart="42.00" departLane="51o_0" departPos="5.10" departSpeed="0.00" departDelay="2.00" arrival="171.00" arrivalLane="52i_0" arrivalPos="10.00" arrivalSpeed="10.50" duration="129.00" routeLength="1015.10" waitingTime="18.00" waitingCount="1" stopTime="0.00" timeLoss="49.46" rerouteNo="0" devices="tripinfo_right_17" vType="passenger" speedFactor="0.94" vaporized=""/>
    <tripinfo id="right_19" depart="48.00" departLane="51o_0" departPos="5.10" departSpeed="0.00" departDelay="4.00" arrival="172.00" arrivalLane="52i_0" arrivalPos="10.00" arrivalSpeed="10.40" duration="124.00" routeLength="1015.10" waitingTime="15.00" waitingCount="1" stopTime="0.00" timeLoss="54.31" rerouteNo="0" devices="tripinfo_right_19" vType="passenger" speedFactor="1.16" vaporized=""/>
    <tripinfo id="right_22" depart="56.00" departLane="51o_0" departPos="5.10" departSpeed="0.00" departDelay="0.00" arrival="174.00" arrivalLane="52i_0" arrivalPos="10.00" arrivalSpeed="10.99" duration="118.00" routeLength="1015.10" waitingTime="8.00" waitingCount="1" stopTime="0.00" timeLoss="40.76" rerouteNo="0" devices="tripinfo_right_22" vType="passenger" speedFactor="0.98" vaporized=""/>
    <tripinfo id="right_24" depart="63.00" departLane="51o_0" departPos="5.10" departSpeed="0.00" departDelay="0.00" arrival="180.00" arrivalLane="52i_0" arrivalPos="10.00" arrivalSpeed="9.44" duration="117.00" routeLength="1015.10" waitingTime="0.00" waitingCount="0" stopTime="0.00" timeLoss="30.25" rerouteNo="0" devices="tripinfo_right_24" vType="passenger" speedFactor="0.83" vaporized=""/>
    <tripinfo id="right_25" depart="68.00" departLane="51o_0" departPos="5.10" departSpeed="0.00" departDelay="4.00" arrival="182.00" arrivalLane="52i_0" arrivalPos="10.00" arrivalSpeed="10.01" duration="114.00" routeLength="1015.10" waitingTime="0.00" waitingCount="0" stopTime="0.00" timeLoss="31.18" rerouteNo="0" devices="tripinfo_right_25" vType="passenger" speedFactor="0.87" vaporized=""/>
    <tripinfo id="right_27" depart="73.00" departLane="51o_0" departPos="5.10" departSpeed="0.00" departDelay="4.00" arrival="184.00" arrivalLane="52i_0" arrivalPos="10.00" arrivalSpeed="10.47" duration="111.00" routeLength="1015.10" waitingTime="0.00" waitingCount="0" stopTime="0.00" timeLoss="32.17" rerouteNo="0" devices="tripinfo_right_27" vType="passenger" speedFactor="0.95" vaporized=""/>
    <tripinfo id="right_31" depart="81.00" departLane="51o_0" departPos="5.10" departSpeed="0.00" departDelay="0.00" arrival="186.00" arrivalLane="52i_0" arrivalPos="10.00" arrivalSpeed="11.16" duration="105.00" routeLength="1015.10" waitingTime="0.00" waitingCount="0" stopTime="0.00" timeLoss="34.48" rerouteNo="0" devices="tripinfo_right_31" vType="passenger" speedFactor="1.15" vaporized=""/>
    <tripinfo id="right_33" depart="92.00" departLane="51o_0" departPos="5.10" departSpeed="0.00" departDelay="0.00" arrival="187.00" arrivalLane="52i_0" arrivalPos="10.00" arrivalSpeed="11.10" duration="95.00" routeLength="1015.10" waitingTime="0.00" waitingCount="0" stopTime="0.00" timeLoss="25.69" rerouteNo="0" devices="tripinfo_right_33" vType="passenger" speedFactor="1.17" vaporized=""/>
    <tripinfo id="left_42" depart="117.00" departLane="52o_0" departPos="5.10" departSpeed="0.00" departDelay="0.00" arrival="204.00" arrivalLane="51i_0" arrivalPos="10.00" arrivalSpeed="12.64" duration="87.00" routeLength="1015.10" waitingTime="0.00" waitingCount="0" stopTime="0.00" timeLoss="14.47" rerouteNo="0" devices="tripinfo_left_42" vType="passenger" speedFactor="1.09" vaporized=""/>
    <tripinfo id="right_41" depart="115.00" departLane="51o_0" departPos="5.10" departSpeed="0.00" departDelay="0.00" arrival="208.00" arrivalLane="52i_0" arrivalPos="10.00" arrivalSpeed="11.24" duration="93.00" routeLength="1015.10" waitingTime="0.00" waitingCount="0" stopTime="0.00" timeLoss="14.66" rerouteNo="0" devices="tripinfo_right_41" vType="passenger" speedFactor="0.96" vaporized=""/>
    <tripinfo id="left_43" depart="122.00" departLane="52o_0" departPos="5.10" departSpeed="0.00" departDelay="2.00" arrival="212.00" arrivalLane="51i_0" arrivalPos="10.00" arrivalSpeed="11.94" duration="90.00" routeLength="1015.10" waitingTime="0.00" waitingCount="0" stopTime="0.00" timeLoss="15.71" rerouteNo="0" devices="tripinfo_left_43" vType="passenger" speedFactor="1.04" vaporized=""/>
    <tripinfo id="left_44" depart="128.00" departLane="52o_0" departPos="5.10" departSpeed="0.00" departDelay="5.00" arrival="217.00" arrivalLane="51i_0" arrivalPos="10.00" arrivalSpeed="12.17" duration="89.00" routeLength="1015.10" waitingTime="0.00" waitingCount="0" stopTime="0.00" timeLoss="14.54" rerouteNo="0" devices="tripinfo_left_44" vType="passenger" speedFactor="1.04" vaporized=""/>
    <tripinfo id="right_46" depart="126.00" departLane="51o_0" departPos="5.10" departSpeed="0.00" departDelay="0.00" arrival="217.00" arrivalLane="52i_0" arrivalPos="10.00" arrivalSpeed="11.45" duration="91.00" routeLength="1015.10" waitingTime="0.00" waitingCount="0" stopTime="0.00" timeLoss="14.69" rerouteNo="0" devices="tripinfo_right_46" vType="passenger" speedFactor="1.00" vaporized=""/>
    <tripinfo id="left_45" depart="133.00" departLane="52o_0" departPos="5.10" departSpeed="0.00" departDelay="8.00" arrival="220.00" arrivalLane="51i_0" arrivalPos="10.00" arrivalSpeed="12.22" duration="87.00" routeLength="1015.10" waitingTime="0.00" waitingCount="0" stopTime="0.00" timeLoss="14.64" rerouteNo="0" devices="tripinfo_left_45" vType="passenger" speedFactor="1.09" vaporized=""/>
    <tripinfo id="right_47" depart="131.00" departLane="51o_0" departPos="5.10" departSpeed="0.00" departDelay="4.00" arrival="228.00" arrivalLane="52i_0" arrivalPos="10.00" arrivalSpeed="10.41" duration="97.00" routeLength="1015.10" waitingTime="0.00" waitingCount="0" stopTime="0.00" timeLoss="15.24" rerouteNo="0" devices="tripinfo_right_47" vType="passenger" speedFactor="0.90" vaporized=""/>
    <tripinfo id="right_50" depart="136.00" departLane="51o_0" departPos="5.10" departSpeed="0.00" departDelay="4.00" arrival="235.00" arrivalLane="52i_0" arrivalPos="10.00" arrivalSpeed="10.00" duration="99.00" routeLength="1015.10" waitingTime="0.00" waitingCount="0" stopTime="0.00" timeLoss="15.02" rerouteNo="0" devices="tripinfo_right_50" vType="passenger" speedFactor="0.85" vaporized=""/>
    <tripinfo id="left_48" depart="138.00" departLane="52o_0" departPos="5.10" departSpeed="0.00" departDelay="9.00" arrival="236.00" arrivalLane="51i_0" arrivalPos="10.00" arrivalSpeed="10.11" duration="98.00" routeLength="1015.10" waitingTime="0.00" waitingCount="0" stopTime="0.00" timeLoss="15.13" rerouteNo="0" devices="tripinfo_left_48" vType="passenger" speedFactor="0.88" vaporized=""/>
    <tripinfo id="left_52" depart="143.00" departLane="52o_0" departPos="5.10" departSpeed="0.00" departDelay="6.00" arrival="237.00" arrivalLane="51i_0" arrivalPos="10.00" arrivalSpeed="10.39" duration="94.00" routeLength="1015.10" waitingTime="0.00" waitingCount="0" stopTime="0.00" timeLoss="18.78" rerouteNo="0" devices="tripinfo_left_52" vType="passenger" speedFactor="1.02" vaporized=""/>
    <tripinfo id="right_53" depart="141.00" departLane="51o_0" departPos="5.10" departSpeed="0.00" departDelay="3.00" arrival="237.00" arrivalLane="52i_0" arrivalPos="10.00" arrivalSpeed="10.58" duration="96.00" routeLength="1015.10" waitingTime="0.00" waitingCount="0" stopTime="0.00" timeLoss="23.72" rerouteNo="0" devices="tripinfo_right_53" vType="passenger" speedFactor="1.10" vaporized=""/>
    <tripinfo id="up_21" depart="51.00" departLane="53o_0" departPos="5.10" departSpeed="0.00" departDelay="0.00" arrival="246.00" arrivalLane="54i_0" arrivalPos="10.00" arrivalSpeed="11.24" duration="195.00" routeLength="1015.10" waitingTime="93.00" waitingCount="1" stopTime="0.00" timeLoss="119.13" rerouteNo="0" devices="tripinfo_up_21" vType="passenger" speedFactor="1.01" vaporized=""/>
    <tripinfo id="up_34" depart="93.00" departLane="53o_0" departPos="5.10" departSpeed="0.00" departDelay="0.00" arrival="249.00" arrivalLane="54i_0" arrivalPos="10.00" arrivalSpeed="11.27" duration="156.00" routeLength="1015.10" waitingTime="52.00" waitingCount="1" stopTime="0.00" timeLoss="79.77" rerouteNo="0" devices="tripinfo_up_34" vType="passenger" speedFactor="0.99" vaporized=""/>
    <tripinfo id="up_37" depart="103.00" departLane="53o_0" departPos="5.10" departSpeed="0.00" departDelay="0.00" arrival="251.00" arrivalLane="54i_0" arrivalPos="10.00" arrivalSpeed="11.91" duration="148.00" routeLength="1015.10" waitingTime="45.00" waitingCount="1" stopTime="0.00" timeLoss="78.54" rerouteNo="0" devices="tripinfo_up_37" vType="passenger" speedFactor="1.18" vaporized=""/>
    <tripinfo id="down_23" depart="57.00" departLane="54o_0" departPos="5.10" departSpeed="0.00" departDelay="0.00" arrival="252.00" arrivalLane="53i_0" arrivalPos="10.00" arrivalSpeed="10.08" duration="195.00" routeLength="1015.10" waitingTime="87.00" waitingCount="1" stopTime="0.00" timeLoss="113.20" rerouteNo="0" devices="tripinfo_down_23" vType="passenger" speedFactor="0.89" vaporized=""/>
    <tripinfo id="up_38" depart="108.00" departLane="53o_0" departPos="5.10" departSpeed="0.00" departDelay="4.00" arrival="253.00" arrivalLane="54i_0" arrivalPos="10.00" arrivalSpeed="12.18" duration="145.00" routeLength="1015.10" waitingTime="40.00" waitingCount="1" stopTime="0.00" timeLoss="72.59" rerouteNo="0" devices="tripinfo_up_38" vType="passenger" speedFactor="1.10" vaporized=""/>
    <tripinfo id="down_28" depart="72.00" departLane="54o_0" departPos="5.10" departSpeed="0.00" departDelay="0.00" arrival="254.00" arrivalLane="53i_0" arrivalPos="10.00" arrivalSpeed="10.63" duration="182.00" routeLength="1015.10" waitingTime="73.00" waitingCount="1" stopTime="0.00" timeLoss="110.94" rerouteNo="0" devices="tripinfo_down_28" vType="passenger" speedFactor="1.13" vaporized=""/>
    <tripinfo id="down_30" depart="77.00" departLane="54o_0" departPos="5.10" departSpeed="0.00" departDelay="3.00" arrival="256.00" arrivalLane="53i_0" arrivalPos="10.00" arrivalSpeed="11.49" duration="179.00" routeLength="1015.10" waitingTime="69.00" waitingCount="1" stopTime="0.00" timeLoss="109.18" rerouteNo="0" devices="tripinfo_down_30" vType="passenger" speedFactor="1.18" vaporized=""/>
    <tripinfo id="down_32" depart="85.00" departLane="54o_0" departPos="5.10" departSpeed="0.00" departDelay="0.00" arrival="257.00" arrivalLane="53i_0" arrivalPos="10.00" arrivalSpeed="11.34" duration="172.00" routeLength="1015.10" waitingTime="64.00" waitingCount="1" stopTime="0.00" timeLoss="96.35" rerouteNo="0" devices="tripinfo_down_32" vType="passenger" speedFactor="1.01" vaporized=""/>
    <tripinfo id="down_35" depart="98.00" departLane="54o_0" departPos="5.10" departSpeed="0.00" departDelay="0.00" arrival="259.00" arrivalLane="53i_0" arrivalPos="10.00" arrivalSpeed="11.48" duration="161.00" routeLength="1015.10" waitingTime="52.00" waitingCount="1" stopTime="0.00" timeLoss="85.80" rerouteNo="0" devices="tripinfo_down_35" vType="passenger" speedFactor="1.02" vaporized=""/>
    <tripinfo id="up_39" depart="116.00" departLane="53o_0" departPos="5.10" departSpeed="0.00" departDelay="10.00" arrival="260.00" arrivalLane="54i_0" arrivalPos="10.00" arrivalSpeed="10.24" duration="144.00" routeLength="1015.10" waitingTime="35.00" waitingCount="1" stopTime="0.00" timeLoss="62.38" rerouteNo="0" devices="tripinfo_up_39" vType="passenger" speedFactor="0.90" vaporized=""/>
    <tripinfo id="down_36" depart="103.00" departLane="54o_0" departPos="5.10" departSpeed="0.00" departDelay="2.00" arrival="261.00" arrivalLane="53i_0" arrivalPos="10.00" arrivalSpeed="11.47" duration="158.00" routeLength="1015.10" waitingTime="49.00" waitingCount="1" stopTime="0.00" timeLoss="80.38" rerouteNo="0" devices="tripinfo_down_36" vType="passenger" speedFactor="0.97" vaporized=""/>
    <tripinfo id="up_40" depart="121.00" departLane="53o_0" departPos="5.10" departSpeed="0.00" departDelay="13.00" arrival="261.00" arrivalLane="54i_0" arrivalPos="10.00" arrivalSpeed="10.16" duration="140.00" routeLength="1015.10" waitingTime="31.00" waitingCount="1" stopTime="0.00" timeLoss="65.42" rerouteNo="0" devices="tripinfo_up_40" vType="passenger" speedFactor="1.03" vaporized=""/>
    <tripinfo id="up_51" depart="135.00" departLane="53o_0" departPos="5.10" departSpeed="0.00" departDelay="0.00" arrival="263.00" arrivalLane="54i_0" arrivalPos="10.00" arrivalSpeed="11.03" duration="128.00" routeLength="1015.10" waitingTime="20.00" waitingCount="1" stopTime="0.00" timeLoss="58.50" rerouteNo="0" devices="tripinfo_up_51" vType="passenger" speedFactor="1.17" vaporized=""/>
    <tripinfo id="up_59" depart="162.00" departLane="53o_0" departPos="5.10" departSpeed="0.00" departDelay="0.00" arrival="265.00" arrivalLane="54i_0" arrivalPos="10.00" arrivalSpeed="11.24" duration="103.00" routeLength="1015.10" waitingTime="0.00" waitingCount="0" stopTime="0.00" timeLoss="25.35" rerouteNo="0" devices="tripinfo_up_59" vType="passenger" speedFactor="0.97" vaporized=""/>
    <tripinfo id="down_49" depart="129.00" departLane="54o_0" departPos="5.10" departSpeed="0.00" departDelay="0.00" arrival="267.00" arrivalLane="53i_0" arrivalPos="10.00" arrivalSpeed="9.78" duration="138.00" routeLength="1015.10" waitingTime="24.00" waitingCount="1" stopTime="0.00" timeLoss="53.70" rerouteNo="0" devices="tripinfo_down_49" vType="passenger" speedFactor="0.85" vaporized=""/>
    <tripinfo id="up_62" depart="170.00" departLane="53o_0" departPos="5.10" departSpeed="0.00" departDelay="0.00" arrival="267.00" arrivalLane="54i_0" arrivalPos="10.00" arrivalSpeed="11.71" duration="97.00" routeLength="1015.10" waitingTime="0.00" waitingCount="0" stopTime="0.00" timeLoss="21.11" rerouteNo="0" devices="tripinfo_up_62" vType="passenger" speedFactor="1.02" vaporized=""/>
    <tripinfo id="down_55" depart="149.00" departLane="54o_0" departPos="5.10" departSpeed="0.00" departDelay="0.00" arrival="269.00" arrivalLane="53i_0" arrivalPos="10.00" arrivalSpeed="10.41" duration="120.00" routeLength="1015.10" waitingTime="6.00" waitingCount="1" stopTime="0.00" timeLoss="43.69" rerouteNo="0" devices="tripinfo_down_55" vType="passenger" speedFactor="1.00" vaporized=""/>
    <tripinfo id="up_64" depart="175.00" departLane="53o_0" departPos="5.10" departSpeed="0.00" departDelay="0.00" arrival="269.00" arrivalLane="54i_0" arrivalPos="10.00" arrivalSpeed="10.80" duration="94.00" routeLength="1015.10" waitingTime="0.00" waitingCount="0" stopTime="0.00" timeLoss="14.98" rerouteNo="0" devices="tripinfo_up_64" vType="passenger" speedFactor="0.94" vaporized=""/>
    <tripinfo id="down_61" depart="164.00" departLane="54o_0" departPos="5.10" departSpeed="0.00" departDelay="0.00" arrival="271.00" arrivalLane="53i_0" arrivalPos="10.00" arrivalSpeed="11.13" duration="107.00" routeLength="1015.10" waitingTime="0.00" waitingCount="0" stopTime="0.00" timeLoss="35.46" rerouteNo="0" devices="tripinfo_down_61" vType="passenger" speedFactor="1.12" vaporized=""/>
    <tripinfo id="up_65" depart="180.00" departLane="53o_0" departPos="5.10" departSpeed="0.00" departDelay="2.00" arrival="278.00" arrivalLane="54i_0" arrivalPos="10.00" arrivalSpeed="10.21" duration="98.00" routeLength="1015.10" waitingTime="0.00" waitingCount="0" stopTime="0.00" timeLoss="15.93" rerouteNo="0" devices="tripinfo_up_65" vType="passenger" speedFactor="0.88" vaporized=""/>
    <tripinfo id="down_70" depart="206.00" departLane="54o_0" departPos="5.10" departSpeed="0.00" departDelay="0.00" arrival="295.00" arrivalLane="53i_0" arrivalPos="10.00" arrivalSpeed="11.98" duration="89.00" routeLength="1015.10" waitingTime="0.00" waitingCount="0" stopTime="0.00" timeLoss="14.00" rerouteNo="0" devices="tripinfo_down_70" vType="passenger" speedFactor="1.02" vaporized=""/>
    <tripinfo id="down_73" depart="214.00" departLane="54o_0" departPos="5.10" departSpeed="0.00" departDelay="0.00" arrival="303.00" arrivalLane="53i_0" arrivalPos="10.00" arrivalSpeed="12.18" duration="89.00" routeLength="1015.10" waitingTime="0.00" waitingCount="0" stopTime="0.00" timeLoss="14.80" rerouteNo="0" devices="tripinfo_down_73" vType="passenger" speedFactor="1.06" vaporized=""/>
    <tripinfo id="up_71" depart="212.00" departLane="53o_0" departPos="5.10" departSpeed="0.00" departDelay="0.00" arrival="305.00" arrivalLane="54i_0" arrivalPos="10.00" arrivalSpeed="11.33" duration="93.00" routeLength="1015.10" waitingTime="0.00" waitingCount="0" stopTime="0.00" timeLoss="15.21" rerouteNo="0" devices="tripinfo_up_71" vType="passenger" speedFactor="0.97" vaporized=""/>
    <tripinfo id="down_76" depart="220.00" departLane="54o_0" departPos="5.10" departSpeed="0.00" departDelay="0.00" arrival="308.00" arrivalLane="53i_0" arrivalPos="10.00" arrivalSpeed="11.68" duration="88.00" routeLength="1015.10" waitingTime="0.00" waitingCount="0" stopTime="0.00" timeLoss="13.56" rerouteNo="0" devices="tripinfo_down_76" vType="passenger" speedFactor="1.03" vaporized=""/>
    <tripinfo id="left_54" depart="148.00" departLane="52o_0" departPos="5.10" departSpeed="0.00" departDelay="1.00" arrival="330.00" arrivalLane="51i_0" arrivalPos="10.00" arrivalSpeed="11.63" duration="182.00" routeLength="1015.10" waitingTime="80.00" waitingCount="1" stopTime="0.00" timeLoss="105.79" rerouteNo="0" devices="tripinfo_left_54" vType="passenger" speedFactor="1.00" vaporized=""/>
    <tripinfo id="left_58" depart="160.00" departLane="52o_0" departPos="5.10" departSpeed="0.00" departDelay="1.00" arrival="331.00" arrivalLane="51i_0" arrivalPos="10.00" arrivalSpeed="11.17" duration="171.00" routeLength="1015.10" waitingTime="68.00" waitingCount="1" stopTime="0.00" timeLoss="96.09" rerouteNo="0" devices="tripinfo_left_58" vType="passenger" speedFactor="1.02" vaporized=""/>
    <tripinfo id="left_69" depart="204.00" departLane="52o_0" departPos="5.10" departSpeed="0.00" departDelay="0.00" arrival="333.00" arrivalLane="51i_0" arrivalPos="10.00" arrivalSpeed="11.69" duration="129.00" routeLength="1015.10" waitingTime="26.00" waitingCount="1" stopTime="0.00" timeLoss="54.02" rerouteNo="0" devices="tripinfo_left_69" vType="passenger" speedFactor="1.02" vaporized=""/>
    <tripinfo id="right_56" depart="150.00" departLane="51o_0" departPos="5.10" departSpeed="0.00" departDelay="0.00" arrival="334.00" arrivalLane="52i_0" arrivalPos="10.00" arrivalSpeed="10.10" duration="184.00" routeLength="1015.10" waitingTime="77.00" waitingCount="1" stopTime="0.00" timeLoss="103.06" rerouteNo="0" devices="tripinfo_right_56" vType="passenger" speedFactor="0.90" vaporized=""/>
    <tripinfo id="right_57" depart="155.00" departLane="51o_0" departPos="5.10" departSpeed="0.00" departDelay="3.00" arrival="336.00" arrivalLane="52i_0" arrivalPos="10.00" arrivalSpeed="10.56" duration="181.00" routeLength="1015.10" waitingTime="73.00" waitingCount="2" stopTime="0.00" timeLoss="110.50" rerouteNo="0" devices="tripinfo_right_57" vType="passenger" speedFactor="1.14" vaporized=""/>
    <tripinfo id="left_75" depart="218.00" departLane="52o_0" departPos="5.10" departSpeed="0.00" departDelay="0.00" arrival="336.00" arrivalLane="51i_0" arrivalPos="10.00" arrivalSpeed="11.30" duration="118.00" routeLength="1015.10" waitingTime="11.00" waitingCount="1" stopTime="0.00" timeLoss="41.28" rerouteNo="0" devices="tripinfo_left_75" vType="passenger" speedFactor="0.98" vaporized=""/>
    <tripinfo id="right_60" depart="169.00" departLane="51o_0" departPos="5.10" departSpeed="0.00" departDelay="5.00" arrival="338.00" arrivalLane="52i_0" arrivalPos="10.00" arrivalSpeed="11.43" duration="169.00" routeLength="1015.10" waitingTime="61.00" waitingCount="1" stopTime="0.00" timeLoss="96.08" rerouteNo="0" devices="tripinfo_right_60" vType="passenger" speedFactor="1.08" vaporized=""/>
    <tripinfo id="left_78" depart="232.00" departLane="52o_0" departPos="5.10" departSpeed="0.00" departDelay="0.00" arrival="338.00" arrivalLane="51i_0" arrivalPos="10.00" arrivalSpeed="11.28" duration="106.00" routeLength="1015.10" waitingTime="2.00" waitingCount="1" stopTime="0.00" timeLoss="30.03" rerouteNo="0" devices="tripinfo_left_78" vType="passenger" speedFactor="1.01" vaporized=""/>
    <tripinfo id="right_63" depart="174.00" departLane="51o_0" departPos="5.10" departSpeed="0.00" departDelay="3.00" arrival="340.00" arrivalLane="52i_0" arrivalPos="10.00" arrivalSpeed="11.61" duration="166.00" routeLength="1015.10" waitingTime="57.00" waitingCount="1" stopTime="0.00" timeLoss="88.79" rerouteNo="0" devices="tripinfo_right_63" vType="passenger" speedFactor="0.99" vaporized=""/>