<?xml version="1.0" encoding="UTF-8"?>

<!-- generated on Sat Oct 26 23:06:02 2019 by Eclipse SUMO GUI Version 1.2.0
<configuration xmlns:xsi="http://www.w3.org/2001/XMLSchema-instance" xsi:noNamespaceSchemaLocation="http://sumo.dlr.de/xsd/sumoConfiguration.xsd">

    <input>
        <net-file value="simulation_files/sumocfgs/../networks/single.net.xml"/>
        <route-files value="simulation_files/sumocfgs/../routes/single.rou.xml"/>
        <additional-files value="simulation_files/sumocfgs/../other/single.tlsp.xml"/>
    </input>

    <output>
        <tripinfo-output value="tripinfo_isolated2.xml"/>
    </output>

    <time>
        <begin value="0"/>
        <step-length value="1"/>
    </time>

    <report>
        <verbose value="true"/>
        <no-step-log value="true"/>
    </report>

    <traci_server>
        <remote-port value="60065"/>
    </traci_server>

    <gui_only>
        <tracker-interval value="1"/>
    </gui_only>

</configuration>
-->

<tripinfos xmlns:xsi="http://www.w3.org/2001/XMLSchema-instance" xsi:noNamespaceSchemaLocation="http://sumo.dlr.de/xsd/tripinfo_file.xsd">
    <tripinfo id="left_0_0" depart="0.00" departLane="52o_0" departPos="5.10" departSpeed="0.00" departDelay="0.00" arrival="88.00" arrivalLane="51i_0" arrivalPos="10.00" arrivalSpeed="12.10" duration="88.00" routeLength="1015.10" waitingTime="0.00" waitingCount="0" stopTime="0.00" timeLoss="14.59" rerouteNo="0" devices="tripinfo_left_0_0" vType="passenger" speedFactor="1.06" vaporized=""/>
    <tripinfo id="right_0_2" depart="3.00" departLane="51o_0" departPos="5.10" departSpeed="0.00" departDelay="0.00" arrival="94.00" arrivalLane="52i_0" arrivalPos="10.00" arrivalSpeed="11.56" duration="91.00" routeLength="1015.10" waitingTime="0.00" waitingCount="0" stopTime="0.00" timeLoss="14.86" rerouteNo="0" devices="tripinfo_right_0_2" vType="passenger" speedFactor="1.01" vaporized=""/>
    <tripinfo id="left_0_1" depart="5.00" departLane="52o_0" departPos="5.10" departSpeed="0.00" departDelay="3.00" arrival="99.00" arrivalLane="51i_0" arrivalPos="10.00" arrivalSpeed="10.79" duration="94.00" routeLength="1015.10" waitingTime="0.00" waitingCount="0" stopTime="0.00" timeLoss="14.93" rerouteNo="0" devices="tripinfo_left_0_1" vType="passenger" speedFactor="0.94" vaporized=""/>
    <tripinfo id="left_0_4" depart="10.00" departLane="52o_0" departPos="5.10" departSpeed="0.00" departDelay="0.00" arrival="101.00" arrivalLane="51i_0" arrivalPos="10.00" arrivalSpeed="11.39" duration="91.00" routeLength="1015.10" waitingTime="0.00" waitingCount="0" stopTime="0.00" timeLoss="15.95" rerouteNo="0" devices="tripinfo_left_0_4" vType="passenger" speedFactor="1.03" vaporized=""/>
    <tripinfo id="up_0_3" depart="4.00" departLane="53o_0" departPos="5.10" departSpeed="0.00" departDelay="0.00" arrival="111.00" arrivalLane="54i_0" arrivalPos="10.00" arrivalSpeed="12.31" duration="107.00" routeLength="1015.10" waitingTime="6.00" waitingCount="1" stopTime="0.00" timeLoss="34.25" rerouteNo="0" devices="tripinfo_up_0_3" vType="passenger" speedFactor="1.08" vaporized=""/>
    <tripinfo id="up_0_5" depart="16.00" departLane="53o_0" departPos="5.10" departSpeed="0.00" departDelay="0.00" arrival="123.00" arrivalLane="54i_0" arrivalPos="10.00" arrivalSpeed="9.93" duration="107.00" routeLength="1015.10" waitingTime="0.00" waitingCount="0" stopTime="0.00" timeLoss="21.11" rerouteNo="0" devices="tripinfo_up_0_5" vType="passenger" speedFactor="0.83" vaporized=""/>
    <tripinfo id="down_0_9" depart="31.00" departLane="54o_0" departPos="5.10" departSpeed="0.00" departDelay="0.00" arrival="131.00" arrivalLane="53i_0" arrivalPos="10.00" arrivalSpeed="9.90" duration="100.00" routeLength="1015.10" waitingTime="0.00" waitingCount="0" stopTime="0.00" timeLoss="15.91" rerouteNo="0" devices="tripinfo_down_0_9" vType="passenger" speedFactor="0.86" vaporized=""/>
    <tripinfo id="down_0_12" depart="72.00" departLane="54o_0" departPos="5.10" departSpeed="0.00" departDelay="0.00" arrival="161.00" arrivalLane="53i_0" arrivalPos="10.00" arrivalSpeed="12.20" duration="89.00" routeLength="1015.10" waitingTime="0.00" waitingCount="0" stopTime="0.00" timeLoss="15.01" rerouteNo="0" devices="tripinfo_down_0_12" vType="passenger" speedFactor="1.05" vaporized=""/>
    <tripinfo id="left_0_6" depart="22.00" departLane="52o_0" departPos="5.10" departSpeed="0.00" departDelay="0.00" arrival="180.00" arrivalLane="51i_0" arrivalPos="10.00" arrivalSpeed="12.19" duration="158.00" routeLength="1015.10" waitingTime="57.00" waitingCount="1" stopTime="0.00" timeLoss="83.95" rerouteNo="0" devices="tripinfo_left_0_6" vType="passenger" speedFactor="1.05" vaporized=""/>
    <tripinfo id="left_0_10" depart="49.00" departLane="52o_0" departPos="5.10" departSpeed="0.00" departDelay="0.00" arrival="182.00" arrivalLane="51i_0" arrivalPos="10.00" arrivalSpeed="12.42" duration="133.00" routeLength="1015.10" waitingTime="31.00" waitingCount="1" stopTime="0.00" timeLoss="60.41" rerouteNo="0" devices="tripinfo_left_0_10" vType="passenger" speedFactor="1.09" vaporized=""/>
    <tripinfo id="left_0_11" depart="67.00" departLane="52o_0" departPos="5.10" departSpeed="0.00" departDelay="0.00" arrival="185.00" arrivalLane="51i_0" arrivalPos="10.00" arrivalSpeed="11.64" duration="118.00" routeLength="1015.10" waitingTime="16.00" waitingCount="1" stopTime="0.00" timeLoss="42.61" rerouteNo="0" devices="tripinfo_left_0_11" vType="passenger" speedFactor="1.03" vaporized=""/>
    <tripinfo id="right_0_7" depart="25.00" departLane="51o_0" departPos="5.10" departSpeed="0.00" departDelay="0.00" arrival="186.00" arrivalLane="52i_0" arrivalPos="10.00" arrivalSpeed="9.94" duration="161.00" routeLength="1015.10" waitingTime="54.00" waitingCount="1" stopTime="0.00" timeLoss="79.44" rerouteNo="0" devices="tripinfo_right_0_7" vType="passenger" speedFactor="0.89" vaporized=""/>
    <tripinfo id="left_0_13" depart="74.00" departLane="52o_0" departPos="5.10" departSpeed="0.00" departDelay="0.00" arrival="186.00" arrivalLane="51i_0" arrivalPos="10.00" arrivalSpeed="12.06" duration="112.00" routeLength="1015.10" waitingTime="10.00" waitingCount="1" stopTime="0.00" timeLoss="41.01" rerouteNo="0" devices="tripinfo_left_0_13" vType="passenger" speedFactor="1.12" vaporized=""/>
    <tripinfo id="right_0_8" depart="31.00" departLane="51o_0" departPos="5.10" departSpeed="0.00" departDelay="0.00" arrival="188.00" arrivalLane="52i_0" arrivalPos="10.00" arrivalSpeed="10.81" duration="157.00" routeLength="1015.10" waitingTime="49.00" waitingCount="1" stopTime="0.00" timeLoss="77.95" rerouteNo="0" devices="tripinfo_right_0_8" vType="passenger" speedFactor="0.94" vaporized=""/>
    <tripinfo id="right_0_14" depart="81.00" departLane="51o_0" departPos="5.10" departSpeed="0.00" departDelay="0.00" arrival="190.00" arrivalLane="52i_0" arrivalPos="10.00" arrivalSpeed="11.74" duration="109.00" routeLength="1015.10" waitingTime="0.00" waitingCount="0" stopTime="0.00" timeLoss="32.30" rerouteNo="0" devices="tripinfo_right_0_14" vType="passenger" speedFactor="0.99" vaporized=""/>
    <tripinfo id="right_0_16" depart="92.00" departLane="51o_0" departPos="5.10" departSpeed="0.00" departDelay="0.00" arrival="194.00" arrivalLane="52i_0" arrivalPos="10.00" arrivalSpeed="10.26" duration="102.00" routeLength="1015.10" waitingTime="0.00" waitingCount="0" stopTime="0.00" timeLoss="19.73" rerouteNo="0" devices="tripinfo_right_0_16" vType="passenger" speedFactor="0.88" vaporized=""/>
    <tripinfo id="left_0_20" depart="120.00" departLane="52o_0" departPos="5.10" departSpeed="0.00" departDelay="0.00" arrival="211.00" arrivalLane="51i_0" arrivalPos="10.00" arrivalSpeed="11.85" duration="91.00" routeLength="1015.10" waitingTime="0.00" waitingCount="0" stopTime="0.00" timeLoss="15.64" rerouteNo="0" devices="tripinfo_left_0_20" vType="passenger" speedFactor="1.02" vaporized=""/>
    <tripinfo id="left_0_21" depart="125.00" departLane="52o_0" departPos="5.10" departSpeed="0.00" departDelay="2.00" arrival="215.00" arrivalLane="51i_0" arrivalPos="10.00" arrivalSpeed="11.06" duration="90.00" routeLength="1015.10" waitingTime="0.00" waitingCount="0" stopTime="0.00" timeLoss="14.51" rerouteNo="0" devices="tripinfo_left_0_21" vType="passenger" speedFactor="1.01" vaporized=""/>
    <tripinfo id="left_0_22" depart="130.00" departLane="52o_0" departPos="5.10" departSpeed="0.00" departDelay="5.00" arrival="223.00" arrivalLane="51i_0" arrivalPos="10.00" arrivalSpeed="11.61" duration="93.00" routeLength="1015.10" waitingTime="0.00" waitingCount="0" stopTime="0.00" timeLoss="15.89" rerouteNo="0" devices="tripinfo_left_0_22" vType="passenger" speedFactor="0.98" vaporized=""/>
    <tripinfo id="right_0_23" depart="126.00" departLane="51o_0" departPos="5.10" departSpeed="0.00" departDelay="0.00" arrival="225.00" arrivalLane="52i_0" arrivalPos="10.00" arrivalSpeed="10.10" duration="99.00" routeLength="1015.10" waitingTime="0.00" waitingCount="0" stopTime="0.00" timeLoss="16.51" rerouteNo="0" devices="tripinfo_right_0_23" vType="passenger" speedFactor="0.89" vaporized=""/>
    <tripinfo id="right_0_25" depart="132.00" departLane="51o_0" departPos="5.10" departSpeed="0.00" departDelay="0.00" arrival="231.00" arrivalLane="52i_0" arrivalPos="10.00" arrivalSpeed="9.83" duration="99.00" routeLength="1015.10" waitingTime="0.00" waitingCount="0" stopTime="0.00" timeLoss="16.12" rerouteNo="0" devices="tripinfo_right_0_25" vType="passenger" speedFactor="0.87" vaporized=""/>
    <tripinfo id="down_0_15" depart="85.00" departLane="54o_0" departPos="5.10" departSpeed="0.00" departDelay="0.00" arrival="249.00" arrivalLane="53i_0" arrivalPos="10.00" arrivalSpeed="10.61" duration="164.00" routeLength="1015.10" waitingTime="61.00" waitingCount="1" stopTime="0.00" timeLoss="84.49" rerouteNo="0" devices="tripinfo_down_0_15" vType="passenger" speedFactor="0.93" vaporized=""/>
    <tripinfo id="up_0_18" depart="103.00" departLane="53o_0" departPos="5.10" departSpeed="0.00" departDelay="0.00" arrival="249.00" arrivalLane="54i_0" arrivalPos="10.00" arrivalSpeed="10.85" duration="146.00" routeLength="1015.10" waitingTime="42.00" waitingCount="1" stopTime="0.00" timeLoss="67.04" rerouteNo="0" devices="tripinfo_up_0_18" vType="passenger" speedFactor="0.94" vaporized=""/>
    <tripinfo id="up_0_19" depart="108.00" departLane="53o_0" departPos="5.10" departSpeed="0.00" departDelay="2.00" arrival="251.00" arrivalLane="54i_0" arrivalPos="10.00" arrivalSpeed="11.21" duration="143.00" routeLength="1015.10" waitingTime="37.00" waitingCount="1" stopTime="0.00" timeLoss="73.00" rerouteNo="0" devices="tripinfo_up_0_19" vType="passenger" speedFactor="1.16" vaporized=""/>
    <tripinfo id="down_0_17" depart="98.00" departLane="54o_0" departPos="5.10" departSpeed="0.00" departDelay="0.00" arrival="252.00" arrivalLane="53i_0" arrivalPos="10.00" arrivalSpeed="11.12" duration="154.00" routeLength="1015.10" waitingTime="47.00" waitingCount="1" stopTime="0.00" timeLoss="74.65" rerouteNo="0" devices="tripinfo_down_0_17" vType="passenger" speedFactor="0.94" vaporized=""/>
    <tripinfo id="up_0_26" depart="135.00" departLane="53o_0" departPos="5.10" departSpeed="0.00" departDelay="0.00" arrival="254.00" arrivalLane="54i_0" arrivalPos="10.00" arrivalSpeed="10.57" duration="119.00" routeLength="1015.10" waitingTime="13.00" waitingCount="1" stopTime="0.00" timeLoss="38.90" rerouteNo="0" devices="tripinfo_up_0_26" vType="passenger" speedFactor="0.92" vaporized=""/>
    <tripinfo id="down_0_24" depart="129.00" departLane="54o_0" departPos="5.10" departSpeed="0.00" departDelay="0.00" arrival="260.00" arrivalLane="53i_0" arrivalPos="10.00" arrivalSpeed="9.51" duration="131.00" routeLength="1015.10" waitingTime="18.00" waitingCount="1" stopTime="0.00" timeLoss="43.65" rerouteNo="0" devices="tripinfo_down_0_24" vType="passenger" speedFactor="0.83" vaporized=""/>
    <tripinfo id="down_0_28" depart="149.00" departLane="54o_0" departPos="5.10" departSpeed="0.00" departDelay="0.00" arrival="262.00" arrivalLane="53i_0" arrivalPos="10.00" arrivalSpeed="10.42" duration="113.00" routeLength="1015.10" waitingTime="0.00" waitingCount="0" stopTime="0.00" timeLoss="41.88" rerouteNo="0" devices="tripinfo_down_0_28" vType="passenger" speedFactor="1.13" vaporized=""/>
    <tripinfo id="down_0_34" depart="206.00" departLane="54o_0" departPos="5.10" departSpeed="0.00" departDelay="0.00" arrival="297.00" arrivalLane="53i_0" arrivalPos="10.00" arrivalSpeed="11.54" duration="91.00" routeLength="1015.10" waitingTime="0.00" waitingCount="0" stopTime="0.00" timeLoss="14.77" rerouteNo="0" devices="tripinfo_down_0_34" vType="passenger" speedFactor="0.99" vaporized=""/>
    <tripinfo id="right_0_30" depart="171.00" departLane="51o_0" departPos="5.10" departSpeed="0.00" departDelay="0.00" arrival="305.00" arrivalLane="52i_0" arrivalPos="10.00" arrivalSpeed="13.49" duration="134.00" routeLength="1015.10" waitingTime="38.00" waitingCount="1" stopTime="0.00" timeLoss="64.61" rerouteNo="0" devices="tripinfo_right_0_30" vType="passenger" speedFactor="1.18" vaporized=""/>
    <tripinfo id="right_0_31" depart="182.00" departLane="51o_0" departPos="5.10" departSpeed="0.00" departDelay="3.00" arrival="308.00" arrivalLane="52i_0" arrivalPos="10.00" arrivalSpeed="12.65" duration="126.00" routeLength="1015.10" waitingTime="29.00" waitingCount="1" stopTime="0.00" timeLoss="56.06" rerouteNo="0" devices="tripinfo_right_0_31" vType="passenger" speedFactor="1.15" vaporized=""/>
    <tripinfo id="left_0_27" depart="147.00" departLane="52o_0" departPos="5.10" departSpeed="0.00" departDelay="0.00" arrival="313.00" arrivalLane="51i_0" arrivalPos="10.00" arrivalSpeed="11.02" duration="166.00" routeLength="1015.10" waitingTime="62.00" waitingCount="1" stopTime="0.00" timeLoss="87.66" rerouteNo="0" devices="tripinfo_left_0_27" vType="passenger" speedFactor="0.95" vaporized=""/>
    <tripinfo id="right_0_32" depart="187.00" departLane="51o_0" departPos="5.10" departSpeed="0.00" departDelay="5.00" arrival="315.00" arrivalLane="52i_0" arrivalPos="10.00" arrivalSpeed="11.41" duration="128.00" routeLength="1015.10" waitingTime="23.00" waitingCount="1" stopTime="0.00" timeLoss="52.21" rerouteNo="0" devices="tripinfo_right_0_32" vType="passenger" speedFactor="1.01" vaporized=""/>
    <tripinfo id="left_0_29" depart="159.00" departLane="52o_0" departPos="5.10" departSpeed="0.00" departDelay="0.00" arrival="317.00" arrivalLane="51i_0" arrivalPos="10.00" arrivalSpeed="10.82" duration="158.00" routeLength="1015.10" waitingTime="53.00" waitingCount="1" stopTime="0.00" timeLoss="78.92" rerouteNo="0" devices="tripinfo_left_0_29" vType="passenger" speedFactor="0.93" vaporized=""/>
    <tripinfo id="left_0_33" depart="204.00" departLane="52o_0" departPos="5.10" departSpeed="0.00" departDelay="0.00" arrival="319.00" arrivalLane="51i_0" arrivalPos="10.00" arrivalSpeed="11.65" duration="115.00" routeLength="1015.10" waitingTime="9.00" waitingCount="1" stopTime="0.00" timeLoss="45.49" rerouteNo="0" devices="tripinfo_left_0_33" vType="passenger" speedFactor="1.17" vaporized=""/>
    <tripinfo id="right_0_36" depart="216.00" departLane="51o_0" departPos="5.10" departSpeed="0.00" departDelay="0.00" arrival="319.00" arrivalLane="52i_0" arrivalPos="10.00" arrivalSpeed="11.13" duration="103.00" routeLength="1015.10" waitingTime="0.00" waitingCount="0" stopTime="0.00" timeLoss="25.42" rerouteNo="0" devices="tripinfo_right_0_36" vType="passenger" speedFactor="0.97" vaporized=""/>
    <tripinfo id="right_0_38" depart="227.00" departLane="51o_0" departPos="5.10" departSpeed="0.00" departDelay="0.00" arrival="320.00" arrivalLane="52i_0" arrivalPos="10.00" arrivalSpeed="11.35" duration="93.00" routeLength="1015.10" waitingTime="0.00" waitingCount="0" stopTime="0.00" timeLoss="21.05" rerouteNo="0" devices="tripinfo_right_0_38" vType="passenger" speedFactor="1.10" vaporized=""/>
    <tripinfo id="right_0_39" depart="239.00" departLane="51o_0" departPos="5.10" departSpeed="0.00" departDelay="0.00" arrival="337.00" arrivalLane="52i_0" arrivalPos="10.00" arrivalSpeed="10.11" duration="98.00" routeLength="1015.10" waitingTime="0.00" waitingCount="0" stopTime="0.00" timeLoss="16.30" rerouteNo="0" devices="tripinfo_right_0_39" vType="passenger" speedFactor="0.90" vaporized=""/>
    <tripinfo id="left_0_42" depart="253.00" departLane="52o_0" departPos="5.10" departSpeed="0.00" departDelay="0.00" arrival="340.00" arrivalLane="51i_0" arrivalPos="10.00" arrivalSpeed="12.45" duration="87.00" routeLength="1015.10" waitingTime="0.00" waitingCount="0" stopTime="0.00" timeLoss="14.57" rerouteNo="0" devices="tripinfo_left_0_42" vType="passenger" speedFactor="1.09" vaporized=""/>
    <tripinfo id="left_0_44" depart="258.00" departLane="52o_0" departPos="5.10" departSpeed="0.00" departDelay="0.00" arrival="348.00" arrivalLane="51i_0" arrivalPos="10.00" arrivalSpeed="11.92" duration="90.00" routeLength="1015.10" waitingTime="0.00" waitingCount="0" stopTime="0.00" timeLoss="15.84" rerouteNo="0" devices="tripinfo_left_0_44" vType="passenger" speedFactor="1.04" vaporized=""/>
    <tripinfo id="down_0_37" depart="220.00" departLane="54o_0" departPos="5.10" departSpeed="0.00" departDelay="0.00" arrival="362.00" arrivalLane="53i_0" arrivalPos="10.00" arrivalSpeed="13.72" duration="142.00" routeLength="1015.10" waitingTime="46.00" waitingCount="1" stopTime="0.00" timeLoss="72.73" rerouteNo="0" devices="tripinfo_down_0_37" vType="passenger" speedFactor="1.18" vaporized=""/>
    <tripinfo id="up_0_35" depart="212.00" departLane="53o_0" departPos="5.10" departSpeed="0.00" departDelay="0.00" arrival="367.00" arrivalLane="54i_0" arrivalPos="10.00" arrivalSpeed="11.55" duration="155.00" routeLength="1015.10" waitingTime="53.00" waitingCount="1" stopTime="0.00" timeLoss="79.40" rerouteNo="0" devices="tripinfo_up_0_35" vType="passenger" speedFactor="1.02" vaporized=""/>
    <tripinfo id="down_0_40" depart="241.00" departLane="54o_0" departPos="5.10" departSpeed="0.00" departDelay="0.00" arrival="369.00" arrivalLane="53i_0" arrivalPos="10.00" arrivalSpeed="11.62" duration="128.00" routeLength="1015.10" waitingTime="24.00" waitingCount="1" stopTime="0.00" timeLoss="52.70" rerouteNo="0" devices="tripinfo_down_0_40" vType="passenger" speedFactor="1.03" vaporized=""/>
    <tripinfo id="down_0_43" depart="256.00" departLane="54o_0" departPos="5.10" departSpeed="0.00" departDelay="0.00" arrival="370.00" arrivalLane="53i_0" arrivalPos="10.00" arrivalSpeed="11.89" duration="114.00" routeLength="1015.10" waitingTime="13.00" waitingCount="1" stopTime="0.00" timeLoss="39.71" rerouteNo="0" devices="tripinfo_down_0_43" vType="passenger" speedFactor="1.04" vaporized=""/>
    <tripinfo id="up_0_41" depart="249.00" departLane="53o_0" departPos="5.10" departSpeed="0.00" departDelay="1.00" arrival="371.00" arrivalLane="54i_0" arrivalPos="10.00" arrivalSpeed="10.75" duration="122.00" routeLength="1015.10" waitingTime="17.00" waitingCount="1" stopTime="0.00" timeLoss="43.83" rerouteNo="0" devices="tripinfo_up_0_41" vType="passenger" speedFactor="0.96" vaporized=""/>
    <tripinfo id="down_0_45" depart="261.00" departLane="54o_0" departPos="5.10" departSpeed="0.00" departDelay="3.00" arrival="372.00" arrivalLane="53i_0" arrivalPos="10.00" arrivalSpeed="12.25" duration="111.00" routeLength="1015.10" waitingTime="7.00" waitingCount="1" stopTime="0.00" timeLoss="38.39" rerouteNo="0" devices="tripinfo_down_0_45" vType="passenger" speedFactor="1.09" vaporized=""/>
    <tripinfo id="right_0_52" depart="292.00" departLane="51o_0" departPos="5.10" departSpeed="0.00" departDelay="0.00" arrival="383.00" arrivalLane="52i_0" arrivalPos="10.00" arrivalSpeed="11.61" duration="91.00" routeLength="1015.10" waitingTime="0.00" waitingCount="0" stopTime="0.00" timeLoss="15.04" rerouteNo="0" devices="tripinfo_right_0_52" vType="passenger" speedFactor="1.02" vaporized=""/>
    <tripinfo id="left_0_46" depart="263.00" departLane="52o_0" departPos="5.10" departSpeed="0.00" departDelay="1.00" arrival="384.00" arrivalLane="51i_0" arrivalPos="10.00" arrivalSpeed="11.42" duration="121.00" routeLength="1015.10" waitingTime="17.00" waitingCount="1" stopTime="0.00" timeLoss="45.14" rerouteNo="0" devices="tripinfo_left_0_46" vType="passenger" speedFactor="1.00" vaporized=""/>
    <tripinfo id="right_0_54" depart="297.00" departLane="51o_0" departPos="5.10" departSpeed="0.00" departDelay="1.00" arrival="388.00" arrivalLane="52i_0" arrivalPos="10.00" arrivalSpeed="11.43" duration="91.00" routeLength="1015.10" waitingTime="0.00" waitingCount="0" stopTime="0.00" timeLoss="14.73" rerouteNo="0" devices="tripinfo_right_0_54" vType="passenger" speedFactor="1.00" vaporized=""/>
    <tripinfo id="left_0_47" depart="281.00" departLane="52o_0" departPos="5.10" departSpeed="0.00" departDelay="0.00" arrival="392.00" arrivalLane="51i_0" arrivalPos="10.00" arrivalSpeed="10.25" duration="111.00" routeLength="1015.10" waitingTime="3.00" waitingCount="1" stopTime="0.00" timeLoss="29.52" rerouteNo="0" devices="tripinfo_left_0_47" vType="passenger" speedFactor="0.90" vaporized=""/>
    <tripinfo id="left_0_48" depart="286.00" departLane="52o_0" departPos="5.10" departSpeed="0.00" departDelay="3.00" arrival="395.00" arrivalLane="51i_0" arrivalPos="10.00" arrivalSpeed="9.80" duration="109.00" routeLength="1015.10" waitingTime="0.00" waitingCount="0" stopTime="0.00" timeLoss="26.37" rerouteNo="0" devices="tripinfo_left_0_48" vType="passenger" speedFactor="0.88" vaporized=""/>
    <tripinfo id="left_0_50" depart="291.00" departLane="52o_0" departPos="5.10" departSpeed="0.00" departDelay="4.00" arrival="398.00" arrivalLane="51i_0" arrivalPos="10.00" arrivalSpeed="9.70" duration="107.00" routeLength="1015.10" waitingTime="0.00" waitingCount="0" stopTime="0.00" timeLoss="23.26" rerouteNo="0" devices="tripinfo_left_0_50" vType="passenger" speedFactor="0.85" vaporized=""/>
    <tripinfo id="left_0_51" depart="296.00" departLane="52o_0" departPos="5.10" departSpeed="0.00" departDelay="5.00" arrival="400.00" arrivalLane="51i_0" arrivalPos="10.00" arrivalSpeed="10.40" duration="104.00" routeLength="1015.10" waitingTime="0.00" waitingCount="0" stopTime="0.00" timeLoss="34.32" rerouteNo="0" devices="tripinfo_left_0_51" vType="passenger" speedFactor="1.17" vaporized=""/>
    <tripinfo id="left_0_55" depart="301.00" departLane="52o_0" departPos="5.10" departSpeed="0.00" departDelay="5.00" arrival="402.00" arrivalLane="51i_0" arrivalPos="10.00" arrivalSpeed="11.18" duration="101.00" routeLength="1015.10" waitingTime="0.00" waitingCount="0" stopTime="0.00" timeLoss="24.39" rerouteNo="0" devices="tripinfo_left_0_55" vType="passenger" speedFactor="1.00" vaporized=""/>
    <tripinfo id="left_0_56" depart="306.00" departLane="52o_0" departPos="5.10" departSpeed="0.00" departDelay="8.00" arrival="404.00" arrivalLane="51i_0" arrivalPos="10.00" arrivalSpeed="10.15" duration="98.00" routeLength="1015.10" waitingTime="0.00" waitingCount="0" stopTime="0.00" timeLoss="16.91" rerouteNo="0" devices="tripinfo_left_0_56" vType="passenger" speedFactor="0.90" vaporized=""/>
    <tripinfo id="down_0_53" depart="293.00" departLane="54o_0" departPos="5.10" departSpeed="0.00" departDelay="0.00" arrival="420.00" arrivalLane="53i_0" arrivalPos="10.00" arrivalSpeed="12.56" duration="127.00" routeLength="1015.10" waitingTime="26.00" waitingCount="1" stopTime="0.00" timeLoss="54.45" rerouteNo="0" devices="tripinfo_down_0_53" vType="passenger" speedFactor="1.10" vaporized=""/>
    <tripinfo id="down_0_57" depart="330.00" departLane="54o_0" departPos="5.10" departSpeed="0.00" departDelay="0.00" arrival="421.00" arrivalLane="53i_0" arrivalPos="10.00" arrivalSpeed="12.20" duration="91.00" routeLength="1015.10" waitingTime="0.00" waitingCount="0" stopTime="0.00" timeLoss="20.51" rerouteNo="0" devices="tripinfo_down_0_57" vType="passenger" speedFactor="1.14" vaporized=""/>
    <tripinfo id="up_0_49" depart="284.00" departLane="53o_0" departPos="5.10" departSpeed="0.00" departDelay="0.00" arrival="429.00" arrivalLane="54i_0" arrivalPos="10.00" arrivalSpeed="9.55" duration="145.00" routeLength="1015.10" waitingTime="37.00" waitingCount="1" stopTime="0.00" timeLoss="61.06" rerouteNo="0" devices="tripinfo_up_0_49" vType="passenger" speedFactor="0.85" vaporized=""/>
    <tripinfo id="up_0_59" depart="344.00" departLane="53o_0" departPos="5.10" departSpeed="0.00" departDelay="0.00" arrival="437.00" arrivalLane="54i_0" arrivalPos="10.00" arrivalSpeed="11.09" duration="93.00" routeLength="1015.10" waitingTime="0.00" waitingCount="0" stopTime="0.00" timeLoss="15.85" rerouteNo="0" devices="tripinfo_up_0_59" vType="passenger" speedFactor="0.97" vaporized=""/>
    <tripinfo id="up_0_60" depart="349.00" departLane="53o_0" departPos="5.10" departSpeed="0.00" departDelay="2.00" arrival="439.00" arrivalLane="54i_0" arrivalPos="10.00" arrivalSpeed="11.77" duration="90.00" routeLength="1015.10" waitingTime="0.00" waitingCount="0" stopTime="0.00" timeLoss="17.29" rerouteNo="0" devices="tripinfo_up_0_60" vType="passenger" speedFactor="1.08" vaporized=""/>
    <tripinfo id="left_0_58" depart="343.00" departLane="52o_0" departPos="5.10" departSpeed="0.00" departDelay="0.00" arrival="480.00" arrivalLane="51i_0" arrivalPos="10.00" arrivalSpeed="12.04" duration="137.00" routeLength="1015.10" waitingTime="35.00" waitingCount="1" stopTime="0.00" timeLoss="62.26" rerouteNo="0" devices="tripinfo_left_0_58" vType="passenger" speedFactor="1.02" vaporized=""/>
    <tripinfo id="right_0_62" depart="352.00" departLane="51o_0" departPos="5.10" departSpeed="0.00" departDelay="0.00" arrival="481.00" arrivalLane="52i_0" arrivalPos="10.00" arrivalSpeed="11.60" duration="129.00" routeLength="1015.10" waitingTime="26.00" waitingCount="1" stopTime="0.00" timeLoss="53.69" rerouteNo="0" devices="tripinfo_right_0_62" vType="passenger" speedFactor="1.02" vaporized=""/>
    <tripinfo id="left_0_61" depart="350.00" departLane="52o_0" departPos="5.10" departSpeed="0.00" departDelay="0.00" arrival="482.00" arrivalLane="51i_0" arrivalPos="10.00" arrivalSpeed="12.59" duration="132.00" routeLength="1015.10" waitingTime="29.00" waitingCount="1" stopTime="0.00" timeLoss="60.63" rerouteNo="0" devices="tripinfo_left_0_61" vType="passenger" speedFactor="1.12" vaporized=""/>
    <tripinfo id="left_0_63" depart="357.00" departLane="52o_0" departPos="5.10" departSpeed="0.00" departDelay="0.00" arrival="487.00" arrivalLane="51i_0" arrivalPos="10.00" arrivalSpeed="11.31" duration="130.00" routeLength="1015.10" waitingTime="23.00" waitingCount="1" stopTime="0.00" timeLoss="52.93" rerouteNo="0" devices="tripinfo_left_0_63" vType="passenger" speedFactor="0.99" vaporized=""/>
    <tripinfo id="right_0_65" depart="363.00" departLane="51o_0" departPos="5.10" departSpeed="0.00" departDelay="0.00" arrival="489.00" arrivalLane="52i_0" arrivalPos="10.00" arrivalSpeed="10.04" duration="126.00" routeLength="1015.10" waitingTime="19.00" waitingCount="1" stopTime="0.00" timeLoss="43.67" rerouteNo="0" devices="tripinfo_right_0_65" vType="passenger" speedFactor="0.88" vaporized=""/>
    <tripinfo id="left_0_64" depart="363.00" departLane="52o_0" departPos="5.10" departSpeed="0.00" departDelay="4.00" arrival="491.00" arrivalLane="51i_0" arrivalPos="10.00" arrivalSpeed="10.68" duration="128.00" routeLength="1015.10" waitingTime="19.00" waitingCount="1" stopTime="0.00" timeLoss="48.58" rerouteNo="0" devices="tripinfo_left_0_64" vType="passenger" speedFactor="0.94" vaporized=""/>
    <tripinfo id="right_0_68" depart="389.00" departLane="51o_0" departPos="5.10" departSpeed="0.00" departDelay="0.00" arrival="491.00" arrivalLane="52i_0" arrivalPos="10.00" arrivalSpeed="11.34" duration="102.00" routeLength="1015.10" waitingTime="0.00" waitingCount="0" stopTime="0.00" timeLoss="27.27" rerouteNo="0" devices="tripinfo_right_0_68" vType="passenger" speedFactor="1.04" vaporized=""/>
    <tripinfo id="up_0_72" depart="423.00" departLane="53o_0" departPos="5.10" departSpeed="0.00" departDelay="0.00" arrival="516.00" arrivalLane="54i_0" arrivalPos="10.00" arrivalSpeed="11.11" duration="93.00" routeLength="1015.10" waitingTime="0.00" waitingCount="0" stopTime="0.00" timeLoss="14.04" rerouteNo="0" devices="tripinfo_up_0_72" vType="passenger" speedFactor="0.94" vaporized=""/>
    <tripinfo id="down_0_75" depart="434.00" departLane="54o_0" departPos="5.10" departSpeed="0.00" departDelay="0.00" arrival="525.00" arrivalLane="53i_0" arrivalPos="10.00" arrivalSpeed="10.76" duration="91.00" routeLength="1015.10" waitingTime="0.00" waitingCount="0" stopTime="0.00" timeLoss="14.31" rerouteNo="0" devices="tripinfo_down_0_75" vType="passenger" speedFactor="0.98" vaporized=""/>
    <tripinfo id="up_0_74" depart="433.00" departLane="53o_0" departPos="5.10" departSpeed="0.00" departDelay="0.00" arrival="527.00" arrivalLane="54i_0" arrivalPos="10.00" arrivalSpeed="10.73" duration="94.00" routeLength="1015.10" waitingTime="0.00" waitingCount="0" stopTime="0.00" timeLoss="15.60" rerouteNo="0" devices="tripinfo_up_0_74" vType="passenger" speedFactor="0.96" vaporized=""/>
    <tripinfo id="up_0_76" depart="451.00" departLane="53o_0" departPos="5.10" departSpeed="0.00" departDelay="0.00" arrival="541.00" arrivalLane="54i_0" arrivalPos="10.00" arrivalSpeed="11.24" duration="90.00" routeLength="1015.10" waitingTime="0.00" waitingCount="0" stopTime="0.00" timeLoss="15.41" rerouteNo="0" devices="tripinfo_up_0_76" vType="passenger" speedFactor="1.03" vaporized=""/>
    <tripinfo id="down_0_78" depart="468.00" departLane="54o_0" departPos="5.10" departSpeed="0.00" departDelay="0.00" arrival="558.00" arrivalLane="53i_0" arrivalPos="10.00" arrivalSpeed="11.67" duration="90.00" routeLength="1015.10" waitingTime="0.00" waitingCount="0" stopTime="0.00" timeLoss="14.59" rerouteNo="0" devices="tripinfo_down_0_78" vType="passenger" speedFactor="1.01" vaporized=""/>