<?xml version="1.0" encoding="UTF-8"?>

<!-- generated on Fri Oct 18 22:13:02 2019 by Eclipse SUMO Version 1.2.0
<configuration xmlns:xsi="http://www.w3.org/2001/XMLSchema-instance" xsi:noNamespaceSchemaLocation="http://sumo.dlr.de/xsd/sumoConfiguration.xsd">

    <input>
        <net-file value="data/cross.net.xml"/>
        <route-files value="data/cross.rou.xml"/>
        <additional-files value="data/cross.tlsp.xml"/>
    </input>

    <output>
        <tripinfo-output value="tripinfo_isolated2.xml"/>
    </output>

    <time>
        <begin value="0"/>
        <step-length value="1"/>
    </time>

    <report>
        <verbose value="true"/>
        <no-step-log value="true"/>
    </report>

    <traci_server>
        <remote-port value="50333"/>
    </traci_server>

    <gui_only>
        <tracker-interval value="1"/>
    </gui_only>

</configuration>
-->

<tripinfos xmlns:xsi="http://www.w3.org/2001/XMLSchema-instance" xsi:noNamespaceSchemaLocation="http://sumo.dlr.de/xsd/tripinfo_file.xsd">
    <tripinfo id="left_0" depart="0.00" departLane="52o_0" departPos="5.10" departSpeed="0.00" departDelay="0.00" arrival="88.00" arrivalLane="51i_0" arrivalPos="10.00" arrivalSpeed="12.27" duration="88.00" routeLength="1015.10" waitingTime="0.00" waitingCount="0" stopTime="0.00" timeLoss="14.64" rerouteNo="0" devices="tripinfo_left_0" vType="passenger" speedFactor="1.06" vaporized=""/>
    <tripinfo id="right_2" depart="3.00" departLane="51o_0" departPos="5.10" departSpeed="0.00" departDelay="0.00" arrival="94.00" arrivalLane="52i_0" arrivalPos="10.00" arrivalSpeed="11.56" duration="91.00" routeLength="1015.10" waitingTime="0.00" waitingCount="0" stopTime="0.00" timeLoss="15.01" rerouteNo="0" devices="tripinfo_right_2" vType="passenger" speedFactor="1.01" vaporized=""/>
    <tripinfo id="left_1" depart="5.00" departLane="52o_0" departPos="5.10" departSpeed="0.00" departDelay="3.00" arrival="99.00" arrivalLane="51i_0" arrivalPos="10.00" arrivalSpeed="10.78" duration="94.00" routeLength="1015.10" waitingTime="0.00" waitingCount="0" stopTime="0.00" timeLoss="14.84" rerouteNo="0" devices="tripinfo_left_1" vType="passenger" speedFactor="0.94" vaporized=""/>
    <tripinfo id="up_3" depart="4.00" departLane="53o_0" departPos="5.10" departSpeed="0.00" departDelay="0.00" arrival="108.00" arrivalLane="54i_0" arrivalPos="10.00" arrivalSpeed="12.41" duration="104.00" routeLength="1015.10" waitingTime="4.00" waitingCount="1" stopTime="0.00" timeLoss="31.17" rerouteNo="0" devices="tripinfo_up_3" vType="passenger" speedFactor="1.08" vaporized=""/>
    <tripinfo id="down_4" depart="6.00" departLane="54o_0" departPos="5.10" departSpeed="0.00" departDelay="0.00" arrival="109.00" arrivalLane="53i_0" arrivalPos="10.00" arrivalSpeed="11.79" duration="103.00" routeLength="1015.10" waitingTime="2.00" waitingCount="1" stopTime="0.00" timeLoss="28.05" rerouteNo="0" devices="tripinfo_down_4" vType="passenger" speedFactor="1.03" vaporized=""/>
    <tripinfo id="down_10" depart="23.00" departLane="54o_0" departPos="5.10" departSpeed="0.00" departDelay="0.00" arrival="111.00" arrivalLane="53i_0" arrivalPos="10.00" arrivalSpeed="12.15" duration="88.00" routeLength="1015.10" waitingTime="0.00" waitingCount="0" stopTime="0.00" timeLoss="15.25" rerouteNo="0" devices="tripinfo_down_10" vType="passenger" speedFactor="1.09" vaporized=""/>
    <tripinfo id="down_13" depart="31.00" departLane="54o_0" departPos="5.10" departSpeed="0.00" departDelay="0.00" arrival="116.00" arrivalLane="53i_0" arrivalPos="10.00" arrivalSpeed="12.62" duration="85.00" routeLength="1015.10" waitingTime="0.00" waitingCount="0" stopTime="0.00" timeLoss="13.63" rerouteNo="0" devices="tripinfo_down_13" vType="passenger" speedFactor="1.12" vaporized=""/>
    <tripinfo id="up_7" depart="16.00" departLane="53o_0" departPos="5.10" departSpeed="0.00" departDelay="0.00" arrival="118.00" arrivalLane="54i_0" arrivalPos="10.00" arrivalSpeed="10.44" duration="102.00" routeLength="1015.10" waitingTime="0.00" waitingCount="0" stopTime="0.00" timeLoss="19.51" rerouteNo="0" devices="tripinfo_up_7" vType="passenger" speedFactor="0.89" vaporized=""/>
    <tripinfo id="up_14" depart="32.00" departLane="53o_0" departPos="5.10" departSpeed="0.00" departDelay="0.00" arrival="123.00" arrivalLane="54i_0" arrivalPos="10.00" arrivalSpeed="11.34" duration="91.00" routeLength="1015.10" waitingTime="0.00" waitingCount="0" stopTime="0.00" timeLoss="14.69" rerouteNo="0" devices="tripinfo_up_14" vType="passenger" speedFactor="0.99" vaporized=""/>
    <tripinfo id="down_15" depart="36.00" departLane="54o_0" departPos="5.10" departSpeed="0.00" departDelay="3.00" arrival="131.00" arrivalLane="53i_0" arrivalPos="10.00" arrivalSpeed="10.95" duration="95.00" routeLength="1015.10" waitingTime="0.00" waitingCount="0" stopTime="0.00" timeLoss="14.65" rerouteNo="0" devices="tripinfo_down_15" vType="passenger" speedFactor="0.93" vaporized=""/>
    <tripinfo id="right_6" depart="11.00" departLane="51o_0" departPos="5.10" departSpeed="0.00" departDelay="0.00" arrival="140.00" arrivalLane="52i_0" arrivalPos="10.00" arrivalSpeed="11.99" duration="129.00" routeLength="1015.10" waitingTime="29.00" waitingCount="1" stopTime="0.00" timeLoss="55.20" rerouteNo="0" devices="tripinfo_right_6" vType="passenger" speedFactor="1.05" vaporized=""/>
    <tripinfo id="right_8" depart="22.00" departLane="51o_0" departPos="5.10" departSpeed="0.00" departDelay="0.00" arrival="147.00" arrivalLane="52i_0" arrivalPos="10.00" arrivalSpeed="10.72" duration="125.00" routeLength="1015.10" waitingTime="21.00" waitingCount="1" stopTime="0.00" timeLoss="45.76" rerouteNo="0" devices="tripinfo_right_8" vType="passenger" speedFactor="0.94" vaporized=""/>
    <tripinfo id="right_11" depart="27.00" departLane="51o_0" departPos="5.10" departSpeed="0.00" departDelay="2.00" arrival="149.00" arrivalLane="52i_0" arrivalPos="10.00" arrivalSpeed="11.13" duration="122.00" routeLength="1015.10" waitingTime="15.00" waitingCount="1" stopTime="0.00" timeLoss="46.68" rerouteNo="0" devices="tripinfo_right_11" vType="passenger" speedFactor="1.03" vaporized=""/>
    <tripinfo id="right_12" depart="32.00" departLane="51o_0" departPos="5.10" departSpeed="0.00" departDelay="1.00" arrival="150.00" arrivalLane="52i_0" arrivalPos="10.00" arrivalSpeed="10.86" duration="118.00" routeLength="1015.10" waitingTime="13.00" waitingCount="1" stopTime="0.00" timeLoss="44.05" rerouteNo="0" devices="tripinfo_right_12" vType="passenger" speedFactor="1.05" vaporized=""/>
    <tripinfo id="left_5" depart="10.00" departLane="52o_0" departPos="5.10" departSpeed="0.00" departDelay="0.00" arrival="151.00" arrivalLane="51i_0" arrivalPos="10.00" arrivalSpeed="9.63" duration="141.00" routeLength="1015.10" waitingTime="30.00" waitingCount="1" stopTime="0.00" timeLoss="54.68" rerouteNo="0" devices="tripinfo_left_5" vType="passenger" speedFactor="0.83" vaporized=""/>
    <tripinfo id="left_9" depart="22.00" departLane="52o_0" departPos="5.10" departSpeed="0.00" departDelay="0.00" arrival="153.00" arrivalLane="51i_0" arrivalPos="10.00" arrivalSpeed="10.27" duration="131.00" routeLength="1015.10" waitingTime="18.00" waitingCount="1" stopTime="0.00" timeLoss="47.23" rerouteNo="0" devices="tripinfo_left_9" vType="passenger" speedFactor="0.86" vaporized=""/>
    <tripinfo id="left_18" depart="41.00" departLane="52o_0" departPos="5.10" departSpeed="0.00" departDelay="0.00" arrival="155.00" arrivalLane="51i_0" arrivalPos="10.00" arrivalSpeed="10.77" duration="114.00" routeLength="1015.10" waitingTime="2.00" waitingCount="1" stopTime="0.00" timeLoss="34.43" rerouteNo="0" devices="tripinfo_left_18" vType="passenger" speedFactor="0.94" vaporized=""/>
    <tripinfo id="left_20" depart="49.00" departLane="52o_0" departPos="5.10" departSpeed="0.00" departDelay="0.00" arrival="156.00" arrivalLane="51i_0" arrivalPos="10.00" arrivalSpeed="10.70" duration="107.00" routeLength="1015.10" waitingTime="0.00" waitingCount="0" stopTime="0.00" timeLoss="31.86" rerouteNo="0" devices="tripinfo_left_20" vType="passenger" speedFactor="1.02" vaporized=""/>
    <tripinfo id="right_16" depart="37.00" departLane="51o_0" departPos="5.10" departSpeed="0.00" departDelay="3.00" arrival="157.00" arrivalLane="52i_0" arrivalPos="10.00" arrivalSpeed="10.36" duration="120.00" routeLength="1015.10" waitingTime="8.00" waitingCount="1" stopTime="0.00" timeLoss="37.14" rerouteNo="0" devices="tripinfo_right_16" vType="passenger" speedFactor="0.88" vaporized=""/>
    <tripinfo id="right_17" depart="42.00" departLane="51o_0" departPos="5.10" departSpeed="0.00" departDelay="2.00" arrival="158.00" arrivalLane="52i_0" arrivalPos="10.00" arrivalSpeed="10.22" duration="116.00" routeLength="1015.10" waitingTime="6.00" waitingCount="1" stopTime="0.00" timeLoss="37.32" rerouteNo="0" devices="tripinfo_right_17" vType="passenger" speedFactor="0.94" vaporized=""/>
    <tripinfo id="right_19" depart="48.00" departLane="51o_0" departPos="5.10" departSpeed="0.00" departDelay="4.00" arrival="160.00" arrivalLane="52i_0" arrivalPos="10.00" arrivalSpeed="10.47" duration="112.00" routeLength="1015.10" waitingTime="2.00" waitingCount="1" stopTime="0.00" timeLoss="42.11" rerouteNo="0" devices="tripinfo_right_19" vType="passenger" speedFactor="1.16" vaporized=""/>
    <tripinfo id="right_22" depart="56.00" departLane="51o_0" departPos="5.10" departSpeed="0.00" departDelay="0.00" arrival="162.00" arrivalLane="52i_0" arrivalPos="10.00" arrivalSpeed="11.05" duration="106.00" routeLength="1015.10" waitingTime="0.00" waitingCount="0" stopTime="0.00" timeLoss="28.67" rerouteNo="0" devices="tripinfo_right_22" vType="passenger" speedFactor="0.98" vaporized=""/>
    <tripinfo id="left_26" depart="67.00" departLane="52o_0" departPos="5.10" departSpeed="0.00" departDelay="0.00" arrival="163.00" arrivalLane="51i_0" arrivalPos="10.00" arrivalSpeed="10.38" duration="96.00" routeLength="1015.10" waitingTime="0.00" waitingCount="0" stopTime="0.00" timeLoss="15.29" rerouteNo="0" devices="tripinfo_left_26" vType="passenger" speedFactor="0.92" vaporized=""/>
    <tripinfo id="right_24" depart="63.00" departLane="51o_0" departPos="5.10" departSpeed="0.00" departDelay="0.00" arrival="168.00" arrivalLane="52i_0" arrivalPos="10.00" arrivalSpeed="9.57" duration="105.00" routeLength="1015.10" waitingTime="0.00" waitingCount="0" stopTime="0.00" timeLoss="17.98" rerouteNo="0" devices="tripinfo_right_24" vType="passenger" speedFactor="0.83" vaporized=""/>
    <tripinfo id="up_21" depart="51.00" departLane="53o_0" departPos="5.10" departSpeed="0.00" departDelay="0.00" arrival="171.00" arrivalLane="54i_0" arrivalPos="10.00" arrivalSpeed="11.30" duration="120.00" routeLength="1015.10" waitingTime="18.00" waitingCount="1" stopTime="0.00" timeLoss="44.19" rerouteNo="0" devices="tripinfo_up_21" vType="passenger" speedFactor="1.01" vaporized=""/>
    <tripinfo id="down_23" depart="57.00" departLane="54o_0" departPos="5.10" departSpeed="0.00" departDelay="0.00" arrival="176.00" arrivalLane="53i_0" arrivalPos="10.00" arrivalSpeed="10.15" duration="119.00" routeLength="1015.10" waitingTime="13.00" waitingCount="1" stopTime="0.00" timeLoss="37.56" rerouteNo="0" devices="tripinfo_down_23" vType="passenger" speedFactor="0.89" vaporized=""/>
    <tripinfo id="down_28" depart="72.00" departLane="54o_0" departPos="5.10" departSpeed="0.00" departDelay="0.00" arrival="178.00" arrivalLane="53i_0" arrivalPos="10.00" arrivalSpeed="10.78" duration="106.00" routeLength="1015.10" waitingTime="0.00" waitingCount="0" stopTime="0.00" timeLoss="35.17" rerouteNo="0" devices="tripinfo_down_28" vType="passenger" speedFactor="1.13" vaporized=""/>
    <tripinfo id="down_30" depart="77.00" departLane="54o_0" departPos="5.10" departSpeed="0.00" departDelay="3.00" arrival="180.00" arrivalLane="53i_0" arrivalPos="10.00" arrivalSpeed="11.42" duration="103.00" routeLength="1015.10" waitingTime="0.00" waitingCount="0" stopTime="0.00" timeLoss="33.51" rerouteNo="0" devices="tripinfo_down_30" vType="passenger" speedFactor="1.18" vaporized=""/>
    <tripinfo id="left_29" depart="74.00" departLane="52o_0" departPos="5.10" departSpeed="0.00" departDelay="0.00" arrival="189.00" arrivalLane="51i_0" arrivalPos="10.00" arrivalSpeed="10.76" duration="115.00" routeLength="1015.10" waitingTime="9.00" waitingCount="1" stopTime="0.00" timeLoss="35.33" rerouteNo="0" devices="tripinfo_left_29" vType="passenger" speedFactor="0.93" vaporized=""/>
    <tripinfo id="right_25" depart="68.00" departLane="51o_0" departPos="5.10" departSpeed="0.00" departDelay="4.00" arrival="192.00" arrivalLane="52i_0" arrivalPos="10.00" arrivalSpeed="10.12" duration="124.00" routeLength="1015.10" waitingTime="15.00" waitingCount="1" stopTime="0.00" timeLoss="40.81" rerouteNo="0" devices="tripinfo_right_25" vType="passenger" speedFactor="0.87" vaporized=""/>
    <tripinfo id="right_27" depart="73.00" departLane="51o_0" departPos="5.10" departSpeed="0.00" departDelay="4.00" arrival="193.00" arrivalLane="52i_0" arrivalPos="10.00" arrivalSpeed="9.96" duration="120.00" routeLength="1015.10" waitingTime="11.00" waitingCount="1" stopTime="0.00" timeLoss="41.82" rerouteNo="0" devices="tripinfo_right_27" vType="passenger" speedFactor="0.95" vaporized=""/>
    <tripinfo id="right_31" depart="81.00" departLane="51o_0" departPos="5.10" departSpeed="0.00" departDelay="0.00" arrival="195.00" arrivalLane="52i_0" arrivalPos="10.00" arrivalSpeed="10.73" duration="114.00" routeLength="1015.10" waitingTime="5.00" waitingCount="1" stopTime="0.00" timeLoss="43.98" rerouteNo="0" devices="tripinfo_right_31" vType="passenger" speedFactor="1.15" vaporized=""/>
    <tripinfo id="right_33" depart="92.00" departLane="51o_0" departPos="5.10" departSpeed="0.00" departDelay="0.00" arrival="197.00" arrivalLane="52i_0" arrivalPos="10.00" arrivalSpeed="11.72" duration="105.00" routeLength="1015.10" waitingTime="0.00" waitingCount="0" stopTime="0.00" timeLoss="35.30" rerouteNo="0" devices="tripinfo_right_33" vType="passenger" speedFactor="1.17" vaporized=""/>
    <tripinfo id="left_42" depart="117.00" departLane="52o_0" departPos="5.10" departSpeed="0.00" departDelay="0.00" arrival="205.00" arrivalLane="51i_0" arrivalPos="10.00" arrivalSpeed="12.33" duration="88.00" routeLength="1015.10" waitingTime="0.00" waitingCount="0" stopTime="0.00" timeLoss="15.16" rerouteNo="0" devices="tripinfo_left_42" vType="passenger" speedFactor="1.09" vaporized=""/>
    <tripinfo id="right_41" depart="115.00" departLane="51o_0" departPos="5.10" departSpeed="0.00" departDelay="0.00" arrival="208.00" arrivalLane="52i_0" arrivalPos="10.00" arrivalSpeed="10.87" duration="93.00" routeLength="1015.10" waitingTime="0.00" waitingCount="0" stopTime="0.00" timeLoss="14.95" rerouteNo="0" devices="tripinfo_right_41" vType="passenger" speedFactor="0.96" vaporized=""/>
    <tripinfo id="left_43" depart="122.00" departLane="52o_0" departPos="5.10" departSpeed="0.00" departDelay="2.00" arrival="213.00" arrivalLane="51i_0" arrivalPos="10.00" arrivalSpeed="11.92" duration="91.00" routeLength="1015.10" waitingTime="0.00" waitingCount="0" stopTime="0.00" timeLoss="16.18" rerouteNo="0" devices="tripinfo_left_43" vType="passenger" speedFactor="1.04" vaporized=""/>
    <tripinfo id="left_44" depart="128.00" departLane="52o_0" departPos="5.10" departSpeed="0.00" departDelay="5.00" arrival="216.00" arrivalLane="51i_0" arrivalPos="10.00" arrivalSpeed="11.81" duration="88.00" routeLength="1015.10" waitingTime="0.00" waitingCount="0" stopTime="0.00" timeLoss="13.60" rerouteNo="0" devices="tripinfo_left_44" vType="passenger" speedFactor="1.04" vaporized=""/>
    <tripinfo id="right_46" depart="126.00" departLane="51o_0" departPos="5.10" departSpeed="0.00" departDelay="0.00" arrival="217.00" arrivalLane="52i_0" arrivalPos="10.00" arrivalSpeed="11.55" duration="91.00" routeLength="1015.10" waitingTime="0.00" waitingCount="0" stopTime="0.00" timeLoss="14.70" rerouteNo="0" devices="tripinfo_right_46" vType="passenger" speedFactor="1.00" vaporized=""/>
    <tripinfo id="left_45" depart="133.00" departLane="52o_0" departPos="5.10" departSpeed="0.00" departDelay="8.00" arrival="220.00" arrivalLane="51i_0" arrivalPos="10.00" arrivalSpeed="12.47" duration="87.00" routeLength="1015.10" waitingTime="0.00" waitingCount="0" stopTime="0.00" timeLoss="14.46" rerouteNo="0" devices="tripinfo_left_45" vType="passenger" speedFactor="1.09" vaporized=""/>
    <tripinfo id="right_47" depart="131.00" departLane="51o_0" departPos="5.10" departSpeed="0.00" departDelay="4.00" arrival="227.00" arrivalLane="52i_0" arrivalPos="10.00" arrivalSpeed="10.21" duration="96.00" routeLength="1015.10" waitingTime="0.00" waitingCount="0" stopTime="0.00" timeLoss="14.99" rerouteNo="0" devices="tripinfo_right_47" vType="passenger" speedFactor="0.90" vaporized=""/>
    <tripinfo id="left_48" depart="138.00" departLane="52o_0" departPos="5.10" departSpeed="0.00" departDelay="9.00" arrival="236.00" arrivalLane="51i_0" arrivalPos="10.00" arrivalSpeed="10.08" duration="98.00" routeLength="1015.10" waitingTime="0.00" waitingCount="0" stopTime="0.00" timeLoss="15.11" rerouteNo="0" devices="tripinfo_left_48" vType="passenger" speedFactor="0.88" vaporized=""/>
    <tripinfo id="right_50" depart="136.00" departLane="51o_0" departPos="5.10" departSpeed="0.00" departDelay="4.00" arrival="236.00" arrivalLane="52i_0" arrivalPos="10.00" arrivalSpeed="10.06" duration="100.00" routeLength="1015.10" waitingTime="0.00" waitingCount="0" stopTime="0.00" timeLoss="15.85" rerouteNo="0" devices="tripinfo_right_50" vType="passenger" speedFactor="0.85" vaporized=""/>
    <tripinfo id="left_52" depart="143.00" departLane="52o_0" departPos="5.10" departSpeed="0.00" departDelay="6.00" arrival="238.00" arrivalLane="51i_0" arrivalPos="10.00" arrivalSpeed="10.61" duration="95.00" routeLength="1015.10" waitingTime="0.00" waitingCount="0" stopTime="0.00" timeLoss="18.90" rerouteNo="0" devices="tripinfo_left_52" vType="passenger" speedFactor="1.02" vaporized=""/>
    <tripinfo id="right_53" depart="141.00" departLane="51o_0" departPos="5.10" departSpeed="0.00" departDelay="3.00" arrival="238.00" arrivalLane="52i_0" arrivalPos="10.00" arrivalSpeed="10.71" duration="97.00" routeLength="1015.10" waitingTime="0.00" waitingCount="0" stopTime="0.00" timeLoss="24.25" rerouteNo="0" devices="tripinfo_right_53" vType="passenger" speedFactor="1.10" vaporized=""/>
    <tripinfo id="left_54" depart="150.00" departLane="52o_0" departPos="5.10" departSpeed="0.00" departDelay="3.00" arrival="241.00" arrivalLane="51i_0" arrivalPos="10.00" arrivalSpeed="11.30" duration="91.00" routeLength="1015.10" waitingTime="0.00" waitingCount="0" stopTime="0.00" timeLoss="14.90" rerouteNo="0" devices="tripinfo_left_54" vType="passenger" speedFactor="1.00" vaporized=""/>
    <tripinfo id="down_32" depart="85.00" departLane="54o_0" departPos="5.10" departSpeed="0.00" departDelay="0.00" arrival="253.00" arrivalLane="53i_0" arrivalPos="10.00" arrivalSpeed="11.57" duration="168.00" routeLength="1015.10" waitingTime="66.00" waitingCount="1" stopTime="0.00" timeLoss="91.99" rerouteNo="0" devices="tripinfo_down_32" vType="passenger" speedFactor="1.01" vaporized=""/>
    <tripinfo id="up_34" depart="93.00" departLane="53o_0" departPos="5.10" departSpeed="0.00" departDelay="0.00" arrival="254.00" arrivalLane="54i_0" arrivalPos="10.00" arrivalSpeed="11.44" duration="161.00" routeLength="1015.10" waitingTime="58.00" waitingCount="1" stopTime="0.00" timeLoss="84.99" rerouteNo="0" devices="tripinfo_up_34" vType="passenger" speedFactor="0.99" vaporized=""/>
    <tripinfo id="down_35" depart="98.00" departLane="54o_0" departPos="5.10" departSpeed="0.00" departDelay="0.00" arrival="255.00" arrivalLane="53i_0" arrivalPos="10.00" arrivalSpeed="11.53" duration="157.00" routeLength="1015.10" waitingTime="54.00" waitingCount="1" stopTime="0.00" timeLoss="81.36" rerouteNo="0" devices="tripinfo_down_35" vType="passenger" speedFactor="1.02" vaporized=""/>
    <tripinfo id="up_37" depart="103.00" departLane="53o_0" departPos="5.10" departSpeed="0.00" departDelay="0.00" arrival="256.00" arrivalLane="54i_0" arrivalPos="10.00" arrivalSpeed="12.24" duration="153.00" routeLength="1015.10" waitingTime="50.00" waitingCount="1" stopTime="0.00" timeLoss="83.69" rerouteNo="0" devices="tripinfo_up_37" vType="passenger" speedFactor="1.18" vaporized=""/>
    <tripinfo id="down_36" depart="103.00" departLane="54o_0" departPos="5.10" departSpeed="0.00" departDelay="2.00" arrival="258.00" arrivalLane="53i_0" arrivalPos="10.00" arrivalSpeed="11.42" duration="155.00" routeLength="1015.10" waitingTime="51.00" waitingCount="1" stopTime="0.00" timeLoss="77.81" rerouteNo="0" devices="tripinfo_down_36" vType="passenger" speedFactor="0.97" vaporized=""/>
    <tripinfo id="up_38" depart="111.00" departLane="53o_0" departPos="5.10" departSpeed="0.00" departDelay="7.00" arrival="258.00" arrivalLane="54i_0" arrivalPos="10.00" arrivalSpeed="12.53" duration="147.00" routeLength="1015.10" waitingTime="42.00" waitingCount="1" stopTime="0.00" timeLoss="74.66" rerouteNo="0" devices="tripinfo_up_38" vType="passenger" speedFactor="1.10" vaporized=""/>
    <tripinfo id="up_39" depart="116.00" departLane="53o_0" departPos="5.10" departSpeed="0.00" departDelay="10.00" arrival="265.00" arrivalLane="54i_0" arrivalPos="10.00" arrivalSpeed="10.46" duration="149.00" routeLength="1015.10" waitingTime="39.00" waitingCount="1" stopTime="0.00" timeLoss="67.62" rerouteNo="0" devices="tripinfo_up_39" vType="passenger" speedFactor="0.90" vaporized=""/>
    <tripinfo id="down_49" depart="129.00" departLane="54o_0" departPos="5.10" departSpeed="0.00" departDelay="0.00" arrival="266.00" arrivalLane="53i_0" arrivalPos="10.00" arrivalSpeed="9.71" duration="137.00" routeLength="1015.10" waitingTime="25.00" waitingCount="1" stopTime="0.00" timeLoss="52.91" rerouteNo="0" devices="tripinfo_down_49" vType="passenger" speedFactor="0.85" vaporized=""/>
    <tripinfo id="up_40" depart="121.00" departLane="53o_0" departPos="5.10" departSpeed="0.00" departDelay="13.00" arrival="267.00" arrivalLane="54i_0" arrivalPos="10.00" arrivalSpeed="11.10" duration="146.00" routeLength="1015.10" waitingTime="36.00" waitingCount="1" stopTime="0.00" timeLoss="70.68" rerouteNo="0" devices="tripinfo_up_40" vType="passenger" speedFactor="1.03" vaporized=""/>
    <tripinfo id="up_51" depart="135.00" departLane="53o_0" departPos="5.10" departSpeed="0.00" departDelay="0.00" arrival="268.00" arrivalLane="54i_0" arrivalPos="10.00" arrivalSpeed="11.37" duration="133.00" routeLength="1015.10" waitingTime="25.00" waitingCount="1" stopTime="0.00" timeLoss="63.65" rerouteNo="0" devices="tripinfo_up_51" vType="passenger" speedFactor="1.17" vaporized=""/>
    <tripinfo id="down_55" depart="149.00" departLane="54o_0" departPos="5.10" departSpeed="0.00" departDelay="0.00" arrival="268.00" arrivalLane="53i_0" arrivalPos="10.00" arrivalSpeed="10.45" duration="119.00" routeLength="1015.10" waitingTime="7.00" waitingCount="1" stopTime="0.00" timeLoss="42.66" rerouteNo="0" devices="tripinfo_down_55" vType="passenger" speedFactor="1.00" vaporized=""/>
    <tripinfo id="up_59" depart="162.00" departLane="53o_0" departPos="5.10" departSpeed="0.00" departDelay="0.00" arrival="270.00" arrivalLane="54i_0" arrivalPos="10.00" arrivalSpeed="11.16" duration="108.00" routeLength="1015.10" waitingTime="0.00" waitingCount="0" stopTime="0.00" timeLoss="30.41" rerouteNo="0" devices="tripinfo_up_59" vType="passenger" speedFactor="0.97" vaporized=""/>
    <tripinfo id="down_61" depart="164.00" departLane="54o_0" departPos="5.10" departSpeed="0.00" departDelay="0.00" arrival="270.00" arrivalLane="53i_0" arrivalPos="10.00" arrivalSpeed="10.67" duration="106.00" routeLength="1015.10" waitingTime="0.00" waitingCount="0" stopTime="0.00" timeLoss="34.55" rerouteNo="0" devices="tripinfo_down_61" vType="passenger" speedFactor="1.12" vaporized=""/>
    <tripinfo id="up_62" depart="170.00" departLane="53o_0" departPos="5.10" departSpeed="0.00" departDelay="0.00" arrival="272.00" arrivalLane="54i_0" arrivalPos="10.00" arrivalSpeed="11.52" duration="102.00" routeLength="1015.10" waitingTime="0.00" waitingCount="0" stopTime="0.00" timeLoss="26.27" rerouteNo="0" devices="tripinfo_up_62" vType="passenger" speedFactor="1.02" vaporized=""/>
    <tripinfo id="up_64" depart="176.00" departLane="53o_0" departPos="5.10" departSpeed="0.00" departDelay="1.00" arrival="274.00" arrivalLane="54i_0" arrivalPos="10.00" arrivalSpeed="10.80" duration="98.00" routeLength="1015.10" waitingTime="0.00" waitingCount="0" stopTime="0.00" timeLoss="18.44" rerouteNo="0" devices="tripinfo_up_64" vType="passenger" speedFactor="0.94" vaporized=""/>
    <tripinfo id="up_65" depart="181.00" departLane="53o_0" departPos="5.10" departSpeed="0.00" departDelay="3.00" arrival="279.00" arrivalLane="54i_0" arrivalPos="10.00" arrivalSpeed="10.18" duration="98.00" routeLength="1015.10" waitingTime="0.00" waitingCount="0" stopTime="0.00" timeLoss="15.99" rerouteNo="0" devices="tripinfo_up_65" vType="passenger" speedFactor="0.88" vaporized=""/>
    <tripinfo id="down_70" depart="206.00" departLane="54o_0" departPos="5.10" departSpeed="0.00" departDelay="0.00" arrival="295.00" arrivalLane="53i_0" arrivalPos="10.00" arrivalSpeed="11.98" duration="89.00" routeLength="1015.10" waitingTime="0.00" waitingCount="0" stopTime="0.00" timeLoss="13.60" rerouteNo="0" devices="tripinfo_down_70" vType="passenger" speedFactor="1.02" vaporized=""/>
    <tripinfo id="down_73" depart="214.00" departLane="54o_0" departPos="5.10" departSpeed="0.00" departDelay="0.00" arrival="303.00" arrivalLane="53i_0" arrivalPos="10.00" arrivalSpeed="12.39" duration="89.00" routeLength="1015.10" waitingTime="0.00" waitingCount="0" stopTime="0.00" timeLoss="14.86" rerouteNo="0" devices="tripinfo_down_73" vType="passenger" speedFactor="1.06" vaporized=""/>
    <tripinfo id="up_71" depart="212.00" departLane="53o_0" departPos="5.10" departSpeed="0.00" departDelay="0.00" arrival="304.00" arrivalLane="54i_0" arrivalPos="10.00" arrivalSpeed="11.36" duration="92.00" routeLength="1015.10" waitingTime="0.00" waitingCount="0" stopTime="0.00" timeLoss="14.77" rerouteNo="0" devices="tripinfo_up_71" vType="passenger" speedFactor="0.97" vaporized=""/>
    <tripinfo id="down_76" depart="220.00" departLane="54o_0" departPos="5.10" departSpeed="0.00" departDelay="0.00" arrival="309.00" arrivalLane="53i_0" arrivalPos="10.00" arrivalSpeed="11.71" duration="89.00" routeLength="1015.10" waitingTime="0.00" waitingCount="0" stopTime="0.00" timeLoss="14.01" rerouteNo="0" devices="tripinfo_down_76" vType="passenger" speedFactor="1.03" vaporized=""/>
    <tripinfo id="left_58" depart="160.00" departLane="52o_0" departPos="5.10" departSpeed="0.00" departDelay="1.00" arrival="323.00" arrivalLane="51i_0" arrivalPos="10.00" arrivalSpeed="12.02" duration="163.00" routeLength="1015.10" waitingTime="61.00" waitingCount="1" stopTime="0.00" timeLoss="88.20" rerouteNo="0" devices="tripinfo_left_58" vType="passenger" speedFactor="1.02" vaporized=""/>
    <tripinfo id="left_69" depart="204.00" departLane="52o_0" departPos="5.10" departSpeed="0.00" departDelay="0.00" arrival="325.00" arrivalLane="51i_0" arrivalPos="10.00" arrivalSpeed="11.69" duration="121.00" routeLength="1015.10" waitingTime="19.00" waitingCount="1" stopTime="0.00" timeLoss="45.88" rerouteNo="0" devices="tripinfo_left_69" vType="passenger" speedFactor="1.02" vaporized=""/>
    <tripinfo id="left_75" depart="218.00" departLane="52o_0" departPos="5.10" departSpeed="0.00" departDelay="0.00" arrival="328.00" arrivalLane="51i_0" arrivalPos="10.00" arrivalSpeed="11.19" duration="110.00" routeLength="1015.10" waitingTime="6.00" waitingCount="1" stopTime="0.00" timeLoss="33.44" rerouteNo="0" devices="tripinfo_left_75" vType="passenger" speedFactor="0.98" vaporized=""/>
    <tripinfo id="right_56" depart="151.00" departLane="51o_0" departPos="5.10" departSpeed="0.00" departDelay="1.00" arrival="329.00" arrivalLane="52i_0" arrivalPos="10.00" arrivalSpeed="10.30" duration="178.00" routeLength="1015.10" waitingTime="71.00" waitingCount="1" stopTime="0.00" timeLoss="96.97" rerouteNo="0" devices="tripinfo_right_56" vType="passenger" speedFactor="0.90" vaporized=""/>
    <tripinfo id="left_78" depart="232.00" departLane="52o_0" departPos="5.10" departSpeed="0.00" departDelay="0.00" arrival="330.00" arrivalLane="51i_0" arrivalPos="10.00" arrivalSpeed="11.46" duration="98.00" routeLength="1015.10" waitingTime="0.00" waitingCount="0" stopTime="0.00" timeLoss="22.21" rerouteNo="0" devices="tripinfo_left_78" vType="passenger" speedFactor="1.01" vaporized=""/>
    <tripinfo id="right_57" depart="156.00" departLane="51o_0" departPos="5.10" departSpeed="0.00" departDelay="4.00" arrival="331.00" arrivalLane="52i_0" arrivalPos="10.00" arrivalSpeed="10.71" duration="175.00" routeLength="1015.10" waitingTime="68.00" waitingCount="1" stopTime="0.00" timeLoss="104.40" rerouteNo="0" devices="tripinfo_right_57" vType="passenger" speedFactor="1.14" vaporized=""/>
    <tripinfo id="right_60" depart="164.00" departLane="51o_0" departPos="5.10" departSpeed="0.00" departDelay="0.00" arrival="333.00" arrivalLane="52i_0" arrivalPos="10.00" arrivalSpeed="10.87" duration="169.00" routeLength="1015.10" waitingTime="61.00" waitingCount="1" stopTime="0.00" timeLoss="96.11" rerouteNo="0" devices="tripinfo_right_60" vType="passenger" speedFactor="1.08" vaporized=""/>
    <tripinfo id="right_63" depart="171.00" departLane="51o_0" departPos="5.10" departSpeed="0.00" departDelay="0.00" arrival="335.00" arrivalLane="52i_0" arrivalPos="10.00" arrivalSpeed="11.32" duration="164.00" routeLength="1015.10" waitingTime="55.00" waitingCount="1" stopTime="0.00" timeLoss="86.77" rerouteNo="0" devices="tripinfo_right_63" vType="passenger" speedFactor="0.99" vaporized=""/>