<?xml version="1.0" encoding="UTF-8"?>

<!-- generated on Thu Nov  7 14:40:57 2019 by Eclipse SUMO Version 1.2.0
<configuration xmlns:xsi="http://www.w3.org/2001/XMLSchema-instance" xsi:noNamespaceSchemaLocation="http://sumo.dlr.de/xsd/sumoConfiguration.xsd">

    <input>
        <net-file value="simulation_files/sumocfgs/../networks/isolated_3_lanes_4_stages.net.xml"/>
        <route-files value="simulation_files/sumocfgs/../routes/isolated_3_lanes_hp_tuning.rou.xml"/>
    </input>

    <output>
        <tripinfo-output value="./output/exp14_hyperparam_tuning_2/rf_avg_veh_number_0.001_0.7999999999999999_0.7999999999999999_4_tripinfo_isolated2.xml"/>
    </output>

    <time>
        <begin value="0"/>
        <step-length value="1"/>
    </time>

    <report>
        <verbose value="true"/>
        <no-step-log value="true"/>
    </report>

    <gui_only>
        <tracker-interval value="1"/>
    </gui_only>

</configuration>
-->

<tripinfos xmlns:xsi="http://www.w3.org/2001/XMLSchema-instance" xsi:noNamespaceSchemaLocation="http://sumo.dlr.de/xsd/tripinfo_file.xsd">
    <tripinfo id="1_0" depart="0.00" departLane="54o_0" departPos="5.10" departSpeed="0.00" departDelay="0.00" arrival="39.00" arrivalLane="51i_0" arrivalPos="10.00" arrivalSpeed="19.76" duration="39.00" routeLength="596.93" waitingTime="0.00" waitingCount="0" stopTime="0.00" timeLoss="9.32" rerouteNo="0" devices="tripinfo_1_0" vType="DEFAULT_VEHTYPE" speedFactor="1.06" vaporized=""/>
    <tripinfo id="1_5" depart="75.00" departLane="52o_0" departPos="5.10" departSpeed="0.00" departDelay="0.00" arrival="121.00" arrivalLane="54i_0" arrivalPos="10.00" arrivalSpeed="15.65" duration="46.00" routeLength="596.93" waitingTime="0.00" waitingCount="0" stopTime="0.00" timeLoss="7.88" rerouteNo="0" devices="tripinfo_1_5" vType="DEFAULT_VEHTYPE" speedFactor="0.83" vaporized=""/>
    <tripinfo id="1_3" depart="45.00" departLane="53o_0" departPos="5.10" departSpeed="0.00" departDelay="0.00" arrival="151.00" arrivalLane="52i_0" arrivalPos="10.00" arrivalSpeed="20.19" duration="106.00" routeLength="596.93" waitingTime="63.00" waitingCount="1" stopTime="0.00" timeLoss="76.93" rerouteNo="0" devices="tripinfo_1_3" vType="DEFAULT_VEHTYPE" speedFactor="1.08" vaporized=""/>
    <tripinfo id="1_6" depart="90.00" departLane="53o_0" departPos="5.10" departSpeed="0.00" departDelay="0.00" arrival="151.00" arrivalLane="54i_1" arrivalPos="10.00" arrivalSpeed="19.62" duration="61.00" routeLength="615.10" waitingTime="16.00" waitingCount="1" stopTime="0.00" timeLoss="29.79" rerouteNo="0" devices="tripinfo_1_6" vType="DEFAULT_VEHTYPE" speedFactor="1.05" vaporized=""/>
    <tripinfo id="1_1" depart="15.00" departLane="53o_0" departPos="5.10" departSpeed="0.00" departDelay="0.00" arrival="152.00" arrivalLane="54i_0" arrivalPos="10.00" arrivalSpeed="17.25" duration="137.00" routeLength="615.10" waitingTime="92.00" waitingCount="1" stopTime="0.00" timeLoss="102.52" rerouteNo="0" devices="tripinfo_1_1" vType="DEFAULT_VEHTYPE" speedFactor="0.94" vaporized=""/>
    <tripinfo id="1_8" depart="120.00" departLane="53o_0" departPos="5.10" departSpeed="0.00" departDelay="0.00" arrival="163.00" arrivalLane="52i_0" arrivalPos="10.00" arrivalSpeed="17.01" duration="43.00" routeLength="596.93" waitingTime="0.00" waitingCount="0" stopTime="0.00" timeLoss="8.58" rerouteNo="0" devices="tripinfo_1_8" vType="DEFAULT_VEHTYPE" speedFactor="0.94" vaporized=""/>
    <tripinfo id="1_10" depart="150.00" departLane="53o_0" departPos="5.10" departSpeed="0.00" departDelay="0.00" arrival="189.00" arrivalLane="52i_0" arrivalPos="10.00" arrivalSpeed="19.91" duration="39.00" routeLength="596.93" waitingTime="0.00" waitingCount="0" stopTime="0.00" timeLoss="9.82" rerouteNo="0" devices="tripinfo_1_10" vType="DEFAULT_VEHTYPE" speedFactor="1.09" vaporized=""/>
    <tripinfo id="1_12" depart="180.00" departLane="51o_0" departPos="5.10" departSpeed="0.00" departDelay="0.00" arrival="242.00" arrivalLane="52i_1" arrivalPos="10.00" arrivalSpeed="19.36" duration="62.00" routeLength="615.10" waitingTime="18.00" waitingCount="1" stopTime="0.00" timeLoss="31.61" rerouteNo="0" devices="tripinfo_1_12" vType="DEFAULT_VEHTYPE" speedFactor="1.05" vaporized=""/>
    <tripinfo id="1_4" depart="60.00" departLane="51o_0" departPos="5.10" departSpeed="0.00" departDelay="0.00" arrival="243.00" arrivalLane="52i_0" arrivalPos="10.00" arrivalSpeed="19.86" duration="183.00" routeLength="615.10" waitingTime="137.00" waitingCount="1" stopTime="0.00" timeLoss="151.33" rerouteNo="0" devices="tripinfo_1_4" vType="DEFAULT_VEHTYPE" speedFactor="1.03" vaporized=""/>
    <tripinfo id="1_2" depart="30.00" departLane="51o_0" departPos="5.10" departSpeed="0.00" departDelay="0.00" arrival="244.00" arrivalLane="54i_0" arrivalPos="10.00" arrivalSpeed="19.39" duration="214.00" routeLength="617.75" waitingTime="167.00" waitingCount="1" stopTime="0.00" timeLoss="180.68" rerouteNo="0" devices="tripinfo_1_2" vType="DEFAULT_VEHTYPE" speedFactor="1.01" vaporized=""/>
    <tripinfo id="1_7" depart="105.00" departLane="51o_0" departPos="5.10" departSpeed="0.00" departDelay="0.00" arrival="247.00" arrivalLane="53i_0" arrivalPos="10.00" arrivalSpeed="16.94" duration="142.00" routeLength="596.93" waitingTime="93.00" waitingCount="1" stopTime="0.00" timeLoss="105.87" rerouteNo="0" devices="tripinfo_1_7" vType="DEFAULT_VEHTYPE" speedFactor="0.89" vaporized=""/>
    <tripinfo id="1_13" depart="195.00" departLane="51o_0" departPos="5.10" departSpeed="0.00" departDelay="0.00" arrival="249.00" arrivalLane="53i_0" arrivalPos="10.00" arrivalSpeed="19.67" duration="54.00" routeLength="596.93" waitingTime="7.00" waitingCount="1" stopTime="0.00" timeLoss="25.47" rerouteNo="0" devices="tripinfo_1_13" vType="DEFAULT_VEHTYPE" speedFactor="1.12" vaporized=""/>
    <tripinfo id="1_16" depart="240.00" departLane="51o_0" departPos="5.10" departSpeed="0.00" departDelay="0.00" arrival="285.00" arrivalLane="54i_0" arrivalPos="10.00" arrivalSpeed="16.74" duration="45.00" routeLength="617.75" waitingTime="0.00" waitingCount="0" stopTime="0.00" timeLoss="6.92" rerouteNo="0" devices="tripinfo_1_16" vType="DEFAULT_VEHTYPE" speedFactor="0.88" vaporized=""/>
    <tripinfo id="1_11" depart="165.00" departLane="54o_0" departPos="5.10" departSpeed="0.00" departDelay="0.00" arrival="323.00" arrivalLane="53i_0" arrivalPos="10.00" arrivalSpeed="19.20" duration="158.00" routeLength="615.10" waitingTime="113.00" waitingCount="1" stopTime="0.00" timeLoss="126.66" rerouteNo="0" devices="tripinfo_1_11" vType="DEFAULT_VEHTYPE" speedFactor="1.03" vaporized=""/>
    <tripinfo id="1_17" depart="255.00" departLane="54o_0" departPos="5.10" departSpeed="0.00" departDelay="0.00" arrival="326.00" arrivalLane="51i_0" arrivalPos="10.00" arrivalSpeed="17.95" duration="71.00" routeLength="596.93" waitingTime="23.00" waitingCount="1" stopTime="0.00" timeLoss="36.48" rerouteNo="0" devices="tripinfo_1_17" vType="DEFAULT_VEHTYPE" speedFactor="0.94" vaporized=""/>
    <tripinfo id="1_22" depart="330.00" departLane="54o_0" departPos="5.10" departSpeed="0.00" departDelay="0.00" arrival="368.00" arrivalLane="53i_0" arrivalPos="10.00" arrivalSpeed="18.07" duration="38.00" routeLength="615.10" waitingTime="0.00" waitingCount="0" stopTime="0.00" timeLoss="5.23" rerouteNo="0" devices="tripinfo_1_22" vType="DEFAULT_VEHTYPE" speedFactor="0.98" vaporized=""/>
    <tripinfo id="1_9" depart="135.00" departLane="52o_0" departPos="5.10" departSpeed="0.00" departDelay="0.00" arrival="387.00" arrivalLane="51i_0" arrivalPos="10.00" arrivalSpeed="15.90" duration="252.00" routeLength="615.10" waitingTime="203.00" waitingCount="1" stopTime="0.00" timeLoss="215.00" rerouteNo="0" devices="tripinfo_1_9" vType="DEFAULT_VEHTYPE" speedFactor="0.86" vaporized=""/>
    <tripinfo id="1_14" depart="210.00" departLane="52o_0" departPos="5.10" departSpeed="0.00" departDelay="0.00" arrival="387.00" arrivalLane="54i_0" arrivalPos="10.00" arrivalSpeed="18.18" duration="177.00" routeLength="596.93" waitingTime="132.00" waitingCount="1" stopTime="0.00" timeLoss="144.72" rerouteNo="0" devices="tripinfo_1_14" vType="DEFAULT_VEHTYPE" speedFactor="0.99" vaporized=""/>
    <tripinfo id="1_20" depart="300.00" departLane="52o_0" departPos="5.10" departSpeed="0.00" departDelay="0.00" arrival="389.00" arrivalLane="54i_0" arrivalPos="10.00" arrivalSpeed="19.02" duration="89.00" routeLength="596.93" waitingTime="43.00" waitingCount="1" stopTime="0.00" timeLoss="57.79" rerouteNo="0" devices="tripinfo_1_20" vType="DEFAULT_VEHTYPE" speedFactor="1.02" vaporized=""/>
    <tripinfo id="1_21" depart="315.00" departLane="52o_0" departPos="5.10" departSpeed="0.00" departDelay="0.00" arrival="392.00" arrivalLane="54i_0" arrivalPos="10.00" arrivalSpeed="19.54" duration="77.00" routeLength="596.93" waitingTime="28.00" waitingCount="1" stopTime="0.00" timeLoss="45.58" rerouteNo="0" devices="tripinfo_1_21" vType="DEFAULT_VEHTYPE" speedFactor="1.01" vaporized=""/>
    <tripinfo id="1_24" depart="360.00" departLane="52o_0" departPos="5.10" departSpeed="0.00" departDelay="0.00" arrival="407.00" arrivalLane="54i_0" arrivalPos="10.00" arrivalSpeed="15.94" duration="47.00" routeLength="596.93" waitingTime="0.00" waitingCount="0" stopTime="0.00" timeLoss="8.27" rerouteNo="0" devices="tripinfo_1_24" vType="DEFAULT_VEHTYPE" speedFactor="0.83" vaporized=""/>
    <tripinfo id="1_26" depart="390.00" departLane="52o_0" departPos="5.10" departSpeed="0.00" departDelay="0.00" arrival="434.00" arrivalLane="53i_0" arrivalPos="10.00" arrivalSpeed="17.78" duration="44.00" routeLength="617.75" waitingTime="0.00" waitingCount="0" stopTime="0.00" timeLoss="7.40" rerouteNo="0" devices="tripinfo_1_26" vType="DEFAULT_VEHTYPE" speedFactor="0.92" vaporized=""/>
    <tripinfo id="1_19" depart="285.00" departLane="53o_0" departPos="5.10" departSpeed="0.00" departDelay="0.00" arrival="461.00" arrivalLane="52i_0" arrivalPos="10.00" arrivalSpeed="21.30" duration="176.00" routeLength="596.93" waitingTime="136.00" waitingCount="1" stopTime="0.00" timeLoss="148.97" rerouteNo="0" devices="tripinfo_1_19" vType="DEFAULT_VEHTYPE" speedFactor="1.16" vaporized=""/>
    <tripinfo id="1_15" depart="225.00" departLane="53o_0" departPos="5.10" departSpeed="0.00" departDelay="0.00" arrival="463.00" arrivalLane="54i_0" arrivalPos="10.00" arrivalSpeed="16.84" duration="238.00" routeLength="615.10" waitingTime="190.00" waitingCount="1" stopTime="0.00" timeLoss="203.40" rerouteNo="0" devices="tripinfo_1_15" vType="DEFAULT_VEHTYPE" speedFactor="0.93" vaporized=""/>
    <tripinfo id="1_18" depart="270.00" departLane="53o_0" departPos="5.10" departSpeed="0.00" departDelay="0.00" arrival="463.00" arrivalLane="54i_1" arrivalPos="10.00" arrivalSpeed="17.79" duration="193.00" routeLength="615.10" waitingTime="146.00" waitingCount="1" stopTime="0.00" timeLoss="158.88" rerouteNo="0" devices="tripinfo_1_18" vType="DEFAULT_VEHTYPE" speedFactor="0.94" vaporized=""/>
    <tripinfo id="1_27" depart="405.00" departLane="53o_0" departPos="5.10" departSpeed="0.00" departDelay="0.00" arrival="463.00" arrivalLane="54i_2" arrivalPos="10.00" arrivalSpeed="18.13" duration="58.00" routeLength="615.10" waitingTime="11.00" waitingCount="1" stopTime="0.00" timeLoss="24.47" rerouteNo="0" devices="tripinfo_1_27" vType="DEFAULT_VEHTYPE" speedFactor="0.95" vaporized=""/>
    <tripinfo id="1_25" depart="375.00" departLane="53o_0" departPos="5.10" departSpeed="0.00" departDelay="0.00" arrival="469.00" arrivalLane="52i_0" arrivalPos="10.00" arrivalSpeed="16.80" duration="94.00" routeLength="596.93" waitingTime="43.00" waitingCount="1" stopTime="0.00" timeLoss="57.21" rerouteNo="0" devices="tripinfo_1_25" vType="DEFAULT_VEHTYPE" speedFactor="0.87" vaporized=""/>
    <tripinfo id="1_31" depart="465.00" departLane="51o_0" departPos="5.10" departSpeed="0.00" departDelay="0.00" arrival="514.00" arrivalLane="54i_0" arrivalPos="10.00" arrivalSpeed="22.03" duration="49.00" routeLength="617.75" waitingTime="7.00" waitingCount="1" stopTime="0.00" timeLoss="20.05" rerouteNo="0" devices="tripinfo_1_31" vType="DEFAULT_VEHTYPE" speedFactor="1.15" vaporized=""/>
    <tripinfo id="1_29" depart="435.00" departLane="51o_0" departPos="5.10" departSpeed="0.00" departDelay="0.00" arrival="515.00" arrivalLane="53i_0" arrivalPos="10.00" arrivalSpeed="16.92" duration="80.00" routeLength="596.93" waitingTime="33.00" waitingCount="1" stopTime="0.00" timeLoss="45.86" rerouteNo="0" devices="tripinfo_1_29" vType="DEFAULT_VEHTYPE" speedFactor="0.93" vaporized=""/>
    <tripinfo id="1_28" depart="420.00" departLane="54o_0" departPos="5.10" departSpeed="0.00" departDelay="0.00" arrival="555.00" arrivalLane="52i_0" arrivalPos="10.00" arrivalSpeed="20.76" duration="135.00" routeLength="617.75" waitingTime="92.00" waitingCount="1" stopTime="0.00" timeLoss="105.65" rerouteNo="0" devices="tripinfo_1_28" vType="DEFAULT_VEHTYPE" speedFactor="1.13" vaporized=""/>
    <tripinfo id="1_23" depart="345.00" departLane="54o_0" departPos="5.10" departSpeed="0.00" departDelay="0.00" arrival="557.00" arrivalLane="51i_0" arrivalPos="10.00" arrivalSpeed="16.25" duration="212.00" routeLength="596.93" waitingTime="164.00" waitingCount="1" stopTime="0.00" timeLoss="176.03" rerouteNo="0" devices="tripinfo_1_23" vType="DEFAULT_VEHTYPE" speedFactor="0.89" vaporized=""/>
    <tripinfo id="1_32" depart="480.00" departLane="54o_0" departPos="5.10" departSpeed="0.00" departDelay="0.00" arrival="558.00" arrivalLane="51i_0" arrivalPos="10.00" arrivalSpeed="18.55" duration="78.00" routeLength="596.93" waitingTime="33.00" waitingCount="1" stopTime="0.00" timeLoss="46.11" rerouteNo="0" devices="tripinfo_1_32" vType="DEFAULT_VEHTYPE" speedFactor="1.01" vaporized=""/>
    <tripinfo id="1_30" depart="450.00" departLane="54o_0" departPos="5.10" departSpeed="0.00" departDelay="0.00" arrival="559.00" arrivalLane="52i_0" arrivalPos="10.00" arrivalSpeed="21.84" duration="109.00" routeLength="617.75" waitingTime="64.00" waitingCount="1" stopTime="0.00" timeLoss="80.29" rerouteNo="0" devices="tripinfo_1_30" vType="DEFAULT_VEHTYPE" speedFactor="1.18" vaporized=""/>
    <tripinfo id="1_38" depart="570.00" departLane="54o_0" departPos="5.10" departSpeed="0.00" departDelay="0.00" arrival="605.00" arrivalLane="53i_0" arrivalPos="10.00" arrivalSpeed="20.24" duration="35.00" routeLength="615.10" waitingTime="0.00" waitingCount="0" stopTime="0.00" timeLoss="6.26" rerouteNo="0" devices="tripinfo_1_38" vType="DEFAULT_VEHTYPE" speedFactor="1.10" vaporized=""/>
    <tripinfo id="1_39" depart="585.00" departLane="54o_0" departPos="5.10" departSpeed="0.00" departDelay="0.00" arrival="626.00" arrivalLane="53i_0" arrivalPos="10.00" arrivalSpeed="16.50" duration="41.00" routeLength="615.10" waitingTime="0.00" waitingCount="0" stopTime="0.00" timeLoss="5.65" rerouteNo="0" devices="tripinfo_1_39" vType="DEFAULT_VEHTYPE" speedFactor="0.90" vaporized=""/>
    <tripinfo id="1_33" depart="495.00" departLane="52o_0" departPos="5.10" departSpeed="0.00" departDelay="0.00" arrival="655.00" arrivalLane="51i_0" arrivalPos="10.00" arrivalSpeed="22.28" duration="160.00" routeLength="615.10" waitingTime="118.00" waitingCount="1" stopTime="0.00" timeLoss="132.91" rerouteNo="0" devices="tripinfo_1_33" vType="DEFAULT_VEHTYPE" speedFactor="1.17" vaporized=""/>
    <tripinfo id="1_37" depart="555.00" departLane="52o_0" departPos="5.10" departSpeed="0.00" departDelay="0.00" arrival="655.00" arrivalLane="51i_1" arrivalPos="10.00" arrivalSpeed="22.28" duration="100.00" routeLength="615.10" waitingTime="57.00" waitingCount="1" stopTime="0.00" timeLoss="72.71" rerouteNo="0" devices="tripinfo_1_37" vType="DEFAULT_VEHTYPE" speedFactor="1.18" vaporized=""/>
    <tripinfo id="1_35" depart="525.00" departLane="52o_0" departPos="5.10" departSpeed="0.00" departDelay="0.00" arrival="659.00" arrivalLane="54i_0" arrivalPos="10.00" arrivalSpeed="19.04" duration="134.00" routeLength="596.93" waitingTime="89.00" waitingCount="1" stopTime="0.00" timeLoss="102.12" rerouteNo="0" devices="tripinfo_1_35" vType="DEFAULT_VEHTYPE" speedFactor="1.02" vaporized=""/>
    <tripinfo id="1_40" depart="600.00" departLane="52o_0" departPos="5.10" departSpeed="0.00" departDelay="0.00" arrival="661.00" arrivalLane="54i_0" arrivalPos="10.00" arrivalSpeed="19.76" duration="61.00" routeLength="596.93" waitingTime="16.00" waitingCount="1" stopTime="0.00" timeLoss="29.72" rerouteNo="0" devices="tripinfo_1_40" vType="DEFAULT_VEHTYPE" speedFactor="1.03" vaporized=""/>
    <tripinfo id="1_42" depart="630.00" departLane="53o_0" departPos="5.10" departSpeed="0.00" departDelay="0.00" arrival="688.00" arrivalLane="54i_0" arrivalPos="10.00" arrivalSpeed="20.40" duration="58.00" routeLength="615.10" waitingTime="14.00" waitingCount="1" stopTime="0.00" timeLoss="28.32" rerouteNo="0" devices="tripinfo_1_42" vType="DEFAULT_VEHTYPE" speedFactor="1.09" vaporized=""/>
    <tripinfo id="1_34" depart="510.00" departLane="53o_0" departPos="5.10" departSpeed="0.00" departDelay="0.00" arrival="690.00" arrivalLane="51i_0" arrivalPos="10.00" arrivalSpeed="18.45" duration="180.00" routeLength="617.75" waitingTime="135.00" waitingCount="1" stopTime="0.00" timeLoss="146.22" rerouteNo="0" devices="tripinfo_1_34" vType="DEFAULT_VEHTYPE" speedFactor="0.99" vaporized=""/>
    <tripinfo id="1_36" depart="540.00" departLane="53o_0" departPos="5.10" departSpeed="0.00" departDelay="0.00" arrival="692.00" arrivalLane="51i_0" arrivalPos="10.00" arrivalSpeed="17.64" duration="152.00" routeLength="617.75" waitingTime="106.00" waitingCount="1" stopTime="0.00" timeLoss="117.74" rerouteNo="0" devices="tripinfo_1_36" vType="DEFAULT_VEHTYPE" speedFactor="0.97" vaporized=""/>
    <tripinfo id="1_44" depart="660.00" departLane="53o_0" departPos="5.10" departSpeed="0.00" departDelay="0.00" arrival="700.00" arrivalLane="52i_0" arrivalPos="10.00" arrivalSpeed="19.66" duration="40.00" routeLength="596.93" waitingTime="0.00" waitingCount="0" stopTime="0.00" timeLoss="9.36" rerouteNo="0" devices="tripinfo_1_44" vType="DEFAULT_VEHTYPE" speedFactor="1.04" vaporized=""/>
    <tripinfo id="1_47" depart="705.00" departLane="53o_0" departPos="5.10" departSpeed="0.00" departDelay="0.00" arrival="750.00" arrivalLane="52i_0" arrivalPos="10.00" arrivalSpeed="16.84" duration="45.00" routeLength="596.93" waitingTime="0.00" waitingCount="0" stopTime="0.00" timeLoss="9.47" rerouteNo="0" devices="tripinfo_1_47" vType="DEFAULT_VEHTYPE" speedFactor="0.90" vaporized=""/>
    <tripinfo id="1_48" depart="720.00" departLane="53o_0" departPos="5.10" departSpeed="0.00" departDelay="0.00" arrival="764.00" arrivalLane="51i_0" arrivalPos="10.00" arrivalSpeed="16.71" duration="44.00" routeLength="617.75" waitingTime="0.00" waitingCount="0" stopTime="0.00" timeLoss="5.89" rerouteNo="0" devices="tripinfo_1_48" vType="DEFAULT_VEHTYPE" speedFactor="0.88" vaporized=""/>
    <tripinfo id="1_52" depart="780.00" departLane="51o_0" departPos="5.10" departSpeed="0.00" departDelay="0.00" arrival="820.00" arrivalLane="54i_0" arrivalPos="10.00" arrivalSpeed="19.71" duration="40.00" routeLength="617.75" waitingTime="0.00" waitingCount="0" stopTime="0.00" timeLoss="7.50" rerouteNo="0" devices="tripinfo_1_52" vType="DEFAULT_VEHTYPE" speedFactor="1.02" vaporized=""/>
    <tripinfo id="1_55" depart="825.00" departLane="51o_0" departPos="5.10" departSpeed="0.00" departDelay="0.00" arrival="865.00" arrivalLane="54i_0" arrivalPos="10.00" arrivalSpeed="18.90" duration="40.00" routeLength="617.75" waitingTime="0.00" waitingCount="0" stopTime="0.00" timeLoss="6.82" rerouteNo="0" devices="tripinfo_1_55" vType="DEFAULT_VEHTYPE" speedFactor="1.00" vaporized=""/>
    <tripinfo id="1_41" depart="615.00" departLane="54o_0" departPos="5.10" departSpeed="0.00" departDelay="0.00" arrival="870.00" arrivalLane="51i_0" arrivalPos="10.00" arrivalSpeed="17.72" duration="255.00" routeLength="596.93" waitingTime="211.00" waitingCount="1" stopTime="0.00" timeLoss="221.56" rerouteNo="0" devices="tripinfo_1_41" vType="DEFAULT_VEHTYPE" speedFactor="0.96" vaporized=""/>
    <tripinfo id="1_56" depart="840.00" departLane="54o_0" departPos="5.10" departSpeed="0.00" departDelay="0.00" arrival="884.00" arrivalLane="51i_0" arrivalPos="10.00" arrivalSpeed="17.35" duration="44.00" routeLength="596.93" waitingTime="0.00" waitingCount="0" stopTime="0.00" timeLoss="8.34" rerouteNo="0" devices="tripinfo_1_56" vType="DEFAULT_VEHTYPE" speedFactor="0.90" vaporized=""/>
    <tripinfo id="1_58" depart="870.00" departLane="54o_0" departPos="5.10" departSpeed="0.00" departDelay="0.00" arrival="906.00" arrivalLane="53i_0" arrivalPos="10.00" arrivalSpeed="19.71" duration="36.00" routeLength="615.10" waitingTime="0.00" waitingCount="0" stopTime="0.00" timeLoss="5.07" rerouteNo="0" devices="tripinfo_1_58" vType="DEFAULT_VEHTYPE" speedFactor="1.02" vaporized=""/>
    <tripinfo id="1_43" depart="645.00" departLane="52o_0" departPos="5.10" departSpeed="0.00" departDelay="0.00" arrival="931.00" arrivalLane="54i_0" arrivalPos="10.00" arrivalSpeed="20.17" duration="286.00" routeLength="596.93" waitingTime="243.00" waitingCount="1" stopTime="0.00" timeLoss="255.16" rerouteNo="0" devices="tripinfo_1_43" vType="DEFAULT_VEHTYPE" speedFactor="1.04" vaporized=""/>
    <tripinfo id="1_46" depart="690.00" departLane="52o_0" departPos="5.10" departSpeed="0.00" departDelay="0.00" arrival="932.00" arrivalLane="51i_1" arrivalPos="10.00" arrivalSpeed="18.41" duration="242.00" routeLength="615.10" waitingTime="196.00" waitingCount="1" stopTime="0.00" timeLoss="210.19" rerouteNo="0" devices="tripinfo_1_46" vType="DEFAULT_VEHTYPE" speedFactor="1.00" vaporized=""/>
    <tripinfo id="1_51" depart="765.00" departLane="52o_0" departPos="5.10" departSpeed="0.00" departDelay="0.00" arrival="932.00" arrivalLane="51i_2" arrivalPos="10.00" arrivalSpeed="21.45" duration="167.00" routeLength="615.10" waitingTime="125.00" waitingCount="1" stopTime="0.00" timeLoss="139.59" rerouteNo="0" devices="tripinfo_1_51" vType="DEFAULT_VEHTYPE" speedFactor="1.17" vaporized=""/>
    <tripinfo id="1_45" depart="675.00" departLane="52o_0" departPos="5.10" departSpeed="0.00" departDelay="0.00" arrival="933.00" arrivalLane="54i_0" arrivalPos="10.00" arrivalSpeed="20.46" duration="258.00" routeLength="596.93" waitingTime="214.00" waitingCount="1" stopTime="0.00" timeLoss="228.30" rerouteNo="0" devices="tripinfo_1_45" vType="DEFAULT_VEHTYPE" speedFactor="1.09" vaporized=""/>
    <tripinfo id="1_50" depart="750.00" departLane="52o_0" departPos="5.10" departSpeed="0.00" departDelay="0.00" arrival="935.00" arrivalLane="53i_0" arrivalPos="10.00" arrivalSpeed="16.27" duration="185.00" routeLength="617.75" waitingTime="136.00" waitingCount="1" stopTime="0.00" timeLoss="146.34" rerouteNo="0" devices="tripinfo_1_50" vType="DEFAULT_VEHTYPE" speedFactor="0.85" vaporized=""/>
    <tripinfo id="1_53" depart="795.00" departLane="52o_0" departPos="5.10" departSpeed="0.00" departDelay="0.00" arrival="935.00" arrivalLane="54i_0" arrivalPos="10.00" arrivalSpeed="20.10" duration="140.00" routeLength="596.93" waitingTime="95.00" waitingCount="1" stopTime="0.00" timeLoss="110.59" rerouteNo="0" devices="tripinfo_1_53" vType="DEFAULT_VEHTYPE" speedFactor="1.10" vaporized=""/>
    <tripinfo id="1_57" depart="855.00" departLane="52o_0" departPos="5.10" departSpeed="0.00" departDelay="0.00" arrival="937.00" arrivalLane="53i_0" arrivalPos="10.00" arrivalSpeed="21.26" duration="82.00" routeLength="617.75" waitingTime="35.00" waitingCount="1" stopTime="0.00" timeLoss="52.69" rerouteNo="0" devices="tripinfo_1_57" vType="DEFAULT_VEHTYPE" speedFactor="1.14" vaporized=""/>
    <tripinfo id="1_59" depart="885.00" departLane="52o_0" departPos="5.10" departSpeed="0.00" departDelay="0.00" arrival="939.00" arrivalLane="54i_0" arrivalPos="10.00" arrivalSpeed="18.01" duration="54.00" routeLength="596.93" waitingTime="4.00" waitingCount="1" stopTime="0.00" timeLoss="21.68" rerouteNo="0" devices="tripinfo_1_59" vType="DEFAULT_VEHTYPE" speedFactor="0.97" vaporized=""/>
    <tripinfo id="1_61" depart="915.00" departLane="53o_0" departPos="5.10" departSpeed="0.00" departDelay="0.00" arrival="950.00" arrivalLane="54i_1" arrivalPos="10.00" arrivalSpeed="21.50" duration="35.00" routeLength="615.10" waitingTime="0.00" waitingCount="0" stopTime="0.00" timeLoss="5.82" rerouteNo="0" devices="tripinfo_1_61" vType="DEFAULT_VEHTYPE" speedFactor="1.12" vaporized=""/>
    <tripinfo id="1_49" depart="735.00" departLane="53o_0" departPos="5.10" departSpeed="0.00" departDelay="0.00" arrival="954.00" arrivalLane="52i_0" arrivalPos="10.00" arrivalSpeed="16.48" duration="219.00" routeLength="596.93" waitingTime="171.00" waitingCount="1" stopTime="0.00" timeLoss="181.41" rerouteNo="0" devices="tripinfo_1_49" vType="DEFAULT_VEHTYPE" speedFactor="0.85" vaporized=""/>
    <tripinfo id="1_54" depart="810.00" departLane="53o_0" departPos="5.10" departSpeed="0.00" departDelay="0.00" arrival="955.00" arrivalLane="52i_0" arrivalPos="10.00" arrivalSpeed="18.07" duration="145.00" routeLength="596.93" waitingTime="97.00" waitingCount="1" stopTime="0.00" timeLoss="113.52" rerouteNo="0" devices="tripinfo_1_54" vType="DEFAULT_VEHTYPE" speedFactor="1.00" vaporized=""/>
    <tripinfo id="1_60" depart="900.00" departLane="51o_0" departPos="5.10" departSpeed="0.00" departDelay="0.00" arrival="965.00" arrivalLane="52i_0" arrivalPos="10.00" arrivalSpeed="20.80" duration="65.00" routeLength="615.10" waitingTime="21.00" waitingCount="1" stopTime="0.00" timeLoss="35.24" rerouteNo="0" devices="tripinfo_1_60" vType="DEFAULT_VEHTYPE" speedFactor="1.08" vaporized=""/>
    <tripinfo id="1_62" depart="930.00" departLane="51o_0" departPos="5.10" departSpeed="0.00" departDelay="0.00" arrival="970.00" arrivalLane="53i_0" arrivalPos="10.00" arrivalSpeed="19.32" duration="40.00" routeLength="596.93" waitingTime="0.00" waitingCount="0" stopTime="0.00" timeLoss="8.62" rerouteNo="0" devices="tripinfo_1_62" vType="DEFAULT_VEHTYPE" speedFactor="1.02" vaporized=""/>
    <tripinfo id="1_63" depart="945.00" departLane="51o_0" departPos="5.10" departSpeed="0.00" departDelay="0.00" arrival="983.00" arrivalLane="52i_0" arrivalPos="10.00" arrivalSpeed="18.55" duration="38.00" routeLength="615.10" waitingTime="0.00" waitingCount="0" stopTime="0.00" timeLoss="5.01" rerouteNo="0" devices="tripinfo_1_63" vType="DEFAULT_VEHTYPE" speedFactor="0.99" vaporized=""/>
    <tripinfo id="1_68" depart="1020.00" departLane="54o_0" departPos="5.10" departSpeed="0.00" departDelay="0.00" arrival="1060.00" arrivalLane="52i_0" arrivalPos="10.00" arrivalSpeed="19.17" duration="40.00" routeLength="617.75" waitingTime="0.00" waitingCount="0" stopTime="0.00" timeLoss="7.86" rerouteNo="0" devices="tripinfo_1_68" vType="DEFAULT_VEHTYPE" speedFactor="1.04" vaporized=""/>
    <tripinfo id="1_64" depart="960.00" departLane="52o_0" departPos="5.10" departSpeed="0.00" departDelay="0.00" arrival="1074.00" arrivalLane="51i_0" arrivalPos="10.00" arrivalSpeed="17.02" duration="114.00" routeLength="615.10" waitingTime="66.00" waitingCount="1" stopTime="0.00" timeLoss="79.46" rerouteNo="0" devices="tripinfo_1_64" vType="DEFAULT_VEHTYPE" speedFactor="0.94" vaporized=""/>
    <tripinfo id="1_69" depart="1035.00" departLane="52o_0" departPos="5.10" departSpeed="0.00" departDelay="0.00" arrival="1076.00" arrivalLane="54i_0" arrivalPos="10.00" arrivalSpeed="19.05" duration="41.00" routeLength="596.93" waitingTime="0.00" waitingCount="0" stopTime="0.00" timeLoss="9.51" rerouteNo="0" devices="tripinfo_1_69" vType="DEFAULT_VEHTYPE" speedFactor="1.02" vaporized=""/>
    <tripinfo id="1_65" depart="975.00" departLane="53o_0" departPos="5.10" departSpeed="0.00" departDelay="0.00" arrival="1087.00" arrivalLane="52i_0" arrivalPos="10.00" arrivalSpeed="16.34" duration="112.00" routeLength="596.93" waitingTime="64.00" waitingCount="1" stopTime="0.00" timeLoss="76.01" rerouteNo="0" devices="tripinfo_1_65" vType="DEFAULT_VEHTYPE" speedFactor="0.88" vaporized=""/>
    <tripinfo id="1_66" depart="990.00" departLane="53o_0" departPos="5.10" departSpeed="0.00" departDelay="0.00" arrival="1089.00" arrivalLane="51i_0" arrivalPos="10.00" arrivalSpeed="17.00" duration="99.00" routeLength="617.75" waitingTime="50.00" waitingCount="1" stopTime="0.00" timeLoss="62.06" rerouteNo="0" devices="tripinfo_1_66" vType="DEFAULT_VEHTYPE" speedFactor="0.91" vaporized=""/>
    <tripinfo id="1_67" depart="1005.00" departLane="53o_0" departPos="5.10" departSpeed="0.00" departDelay="0.00" arrival="1090.00" arrivalLane="51i_0" arrivalPos="10.00" arrivalSpeed="17.59" duration="85.00" routeLength="617.75" waitingTime="35.00" waitingCount="1" stopTime="0.00" timeLoss="48.88" rerouteNo="0" devices="tripinfo_1_67" vType="DEFAULT_VEHTYPE" speedFactor="0.91" vaporized=""/>
    <tripinfo id="1_70" depart="1050.00" departLane="53o_0" departPos="5.10" departSpeed="0.00" departDelay="0.00" arrival="1090.00" arrivalLane="52i_0" arrivalPos="10.00" arrivalSpeed="19.86" duration="40.00" routeLength="596.93" waitingTime="0.00" waitingCount="0" stopTime="0.00" timeLoss="9.05" rerouteNo="0" devices="tripinfo_1_70" vType="DEFAULT_VEHTYPE" speedFactor="1.02" vaporized=""/>
    <tripinfo id="1_71" depart="1065.00" departLane="54o_0" departPos="5.10" departSpeed="0.00" departDelay="0.00" arrival="1207.00" arrivalLane="51i_0" arrivalPos="10.00" arrivalSpeed="18.19" duration="142.00" routeLength="596.93" waitingTime="96.00" waitingCount="1" stopTime="0.00" timeLoss="108.80" rerouteNo="0" devices="tripinfo_1_71" vType="DEFAULT_VEHTYPE" speedFactor="0.97" vaporized=""/>
    <tripinfo id="1_75" depart="1125.00" departLane="54o_0" departPos="5.10" departSpeed="0.00" departDelay="0.00" arrival="1209.00" arrivalLane="51i_0" arrivalPos="10.00" arrivalSpeed="18.86" duration="84.00" routeLength="596.93" waitingTime="38.00" waitingCount="1" stopTime="0.00" timeLoss="51.13" rerouteNo="0" devices="tripinfo_1_75" vType="DEFAULT_VEHTYPE" speedFactor="0.98" vaporized=""/>