<?xml version="1.0" encoding="UTF-8"?>

<!-- generated on Fri Nov  8 06:54:14 2019 by Eclipse SUMO Version 1.2.0
<configuration xmlns:xsi="http://www.w3.org/2001/XMLSchema-instance" xsi:noNamespaceSchemaLocation="http://sumo.dlr.de/xsd/sumoConfiguration.xsd">

    <input>
        <net-file value="simulation_files/sumocfgs/../networks/isolated_3_lanes_4_stages.net.xml"/>
        <route-files value="simulation_files/sumocfgs/../routes/isolated_3_lanes_80p.rou.xml"/>
    </input>

    <output>
        <tripinfo-output value="./output/exp21_rf_80p/delay_prq__6_tripinfo_isolated.xml"/>
    </output>

    <time>
        <begin value="0"/>
        <step-length value="1"/>
    </time>

    <report>
        <verbose value="true"/>
        <no-step-log value="true"/>
    </report>

    <gui_only>
        <tracker-interval value="1"/>
    </gui_only>

</configuration>
-->

<tripinfos xmlns:xsi="http://www.w3.org/2001/XMLSchema-instance" xsi:noNamespaceSchemaLocation="http://sumo.dlr.de/xsd/tripinfo_file.xsd">
    <tripinfo id="1" depart="0.00" departLane="54o_0" departPos="5.10" departSpeed="0.00" departDelay="-0.89" arrival="40.00" arrivalLane="53i_0" arrivalPos="10.00" arrivalSpeed="17.63" duration="40.00" routeLength="615.10" waitingTime="0.00" waitingCount="0" stopTime="0.00" timeLoss="5.36" rerouteNo="0" devices="tripinfo_1" vType="DEFAULT_VEHTYPE" speedFactor="0.94" vaporized=""/>
    <tripinfo id="4" depart="3.00" departLane="54o_0" departPos="5.10" departSpeed="0.00" departDelay="-0.56" arrival="41.00" arrivalLane="53i_0" arrivalPos="10.00" arrivalSpeed="19.46" duration="38.00" routeLength="615.10" waitingTime="0.00" waitingCount="0" stopTime="0.00" timeLoss="6.91" rerouteNo="0" devices="tripinfo_4" vType="DEFAULT_VEHTYPE" speedFactor="1.03" vaporized=""/>
    <tripinfo id="3" depart="2.00" departLane="52o_0" departPos="5.10" departSpeed="0.00" departDelay="-0.67" arrival="46.00" arrivalLane="51i_0" arrivalPos="10.00" arrivalSpeed="20.37" duration="44.00" routeLength="615.10" waitingTime="2.00" waitingCount="1" stopTime="0.00" timeLoss="14.48" rerouteNo="0" devices="tripinfo_3" vType="DEFAULT_VEHTYPE" speedFactor="1.08" vaporized=""/>
    <tripinfo id="14" depart="12.00" departLane="52o_0" departPos="5.10" departSpeed="0.00" departDelay="-0.46" arrival="50.00" arrivalLane="51i_0" arrivalPos="10.00" arrivalSpeed="18.25" duration="38.00" routeLength="615.10" waitingTime="0.00" waitingCount="0" stopTime="0.00" timeLoss="5.20" rerouteNo="0" devices="tripinfo_14" vType="DEFAULT_VEHTYPE" speedFactor="0.99" vaporized=""/>
    <tripinfo id="21" depart="18.00" departLane="52o_0" departPos="5.10" departSpeed="0.00" departDelay="-0.69" arrival="55.00" arrivalLane="51i_0" arrivalPos="10.00" arrivalSpeed="19.41" duration="37.00" routeLength="615.10" waitingTime="0.00" waitingCount="0" stopTime="0.00" timeLoss="4.71" rerouteNo="0" devices="tripinfo_21" vType="DEFAULT_VEHTYPE" speedFactor="1.01" vaporized=""/>
    <tripinfo id="22" depart="21.00" departLane="52o_0" departPos="5.10" departSpeed="0.00" departDelay="1.42" arrival="60.00" arrivalLane="51i_0" arrivalPos="10.00" arrivalSpeed="17.97" duration="39.00" routeLength="615.10" waitingTime="0.00" waitingCount="0" stopTime="0.00" timeLoss="5.67" rerouteNo="0" devices="tripinfo_22" vType="DEFAULT_VEHTYPE" speedFactor="0.98" vaporized=""/>
    <tripinfo id="30" depart="26.00" departLane="52o_0" departPos="5.10" departSpeed="0.00" departDelay="-0.70" arrival="63.00" arrivalLane="53i_0" arrivalPos="10.00" arrivalSpeed="22.47" duration="37.00" routeLength="617.75" waitingTime="0.00" waitingCount="0" stopTime="0.00" timeLoss="8.71" rerouteNo="0" devices="tripinfo_30" vType="DEFAULT_VEHTYPE" speedFactor="1.18" vaporized=""/>
    <tripinfo id="31" depart="29.00" departLane="52o_0" departPos="5.10" departSpeed="0.00" departDelay="1.41" arrival="66.00" arrivalLane="54i_0" arrivalPos="10.00" arrivalSpeed="22.20" duration="37.00" routeLength="596.93" waitingTime="0.00" waitingCount="0" stopTime="0.00" timeLoss="9.44" rerouteNo="0" devices="tripinfo_31" vType="DEFAULT_VEHTYPE" speedFactor="1.15" vaporized=""/>
    <tripinfo id="38" depart="33.00" departLane="52o_0" departPos="5.10" departSpeed="0.00" departDelay="-0.82" arrival="72.00" arrivalLane="54i_0" arrivalPos="10.00" arrivalSpeed="20.93" duration="39.00" routeLength="596.93" waitingTime="0.00" waitingCount="0" stopTime="0.00" timeLoss="9.75" rerouteNo="0" devices="tripinfo_38" vType="DEFAULT_VEHTYPE" speedFactor="1.10" vaporized=""/>
    <tripinfo id="0" depart="0.00" departLane="53o_0" departPos="5.10" departSpeed="0.00" departDelay="0.00" arrival="79.00" arrivalLane="54i_0" arrivalPos="10.00" arrivalSpeed="19.19" duration="79.00" routeLength="615.10" waitingTime="36.00" waitingCount="1" stopTime="0.00" timeLoss="49.05" rerouteNo="0" devices="tripinfo_0" vType="DEFAULT_VEHTYPE" speedFactor="1.06" vaporized=""/>
    <tripinfo id="2" depart="3.00" departLane="53o_0" departPos="5.10" departSpeed="0.00" departDelay="1.22" arrival="79.00" arrivalLane="54i_1" arrivalPos="10.00" arrivalSpeed="18.95" duration="76.00" routeLength="615.10" waitingTime="31.00" waitingCount="1" stopTime="0.00" timeLoss="44.34" rerouteNo="0" devices="tripinfo_2" vType="DEFAULT_VEHTYPE" speedFactor="1.01" vaporized=""/>
    <tripinfo id="11" depart="13.00" departLane="53o_0" departPos="5.10" departSpeed="0.00" departDelay="3.21" arrival="79.00" arrivalLane="51i_0" arrivalPos="10.00" arrivalSpeed="18.65" duration="66.00" routeLength="617.75" waitingTime="22.00" waitingCount="1" stopTime="0.00" timeLoss="33.73" rerouteNo="0" devices="tripinfo_11" vType="DEFAULT_VEHTYPE" speedFactor="1.03" vaporized=""/>
    <tripinfo id="8" depart="7.00" departLane="53o_0" departPos="5.10" departSpeed="0.00" departDelay="-0.12" arrival="82.00" arrivalLane="52i_0" arrivalPos="10.00" arrivalSpeed="17.40" duration="75.00" routeLength="596.93" waitingTime="27.00" waitingCount="1" stopTime="0.00" timeLoss="41.04" rerouteNo="0" devices="tripinfo_8" vType="DEFAULT_VEHTYPE" speedFactor="0.94" vaporized=""/>
    <tripinfo id="18" depart="22.00" departLane="53o_0" departPos="5.10" departSpeed="0.00" departDelay="5.98" arrival="82.00" arrivalLane="54i_1" arrivalPos="10.00" arrivalSpeed="17.49" duration="60.00" routeLength="615.10" waitingTime="10.00" waitingCount="1" stopTime="0.00" timeLoss="25.68" rerouteNo="0" devices="tripinfo_18" vType="DEFAULT_VEHTYPE" speedFactor="0.94" vaporized=""/>
    <tripinfo id="15" depart="16.00" departLane="53o_0" departPos="5.10" departSpeed="0.00" departDelay="2.65" arrival="83.00" arrivalLane="54i_2" arrivalPos="10.00" arrivalSpeed="17.54" duration="67.00" routeLength="615.10" waitingTime="18.00" waitingCount="1" stopTime="0.00" timeLoss="31.91" rerouteNo="0" devices="tripinfo_15" vType="DEFAULT_VEHTYPE" speedFactor="0.93" vaporized=""/>
    <tripinfo id="10" depart="10.00" departLane="53o_0" departPos="5.10" departSpeed="0.00" departDelay="1.10" arrival="84.00" arrivalLane="52i_0" arrivalPos="10.00" arrivalSpeed="19.98" duration="74.00" routeLength="596.93" waitingTime="27.00" waitingCount="1" stopTime="0.00" timeLoss="44.62" rerouteNo="0" devices="tripinfo_10" vType="DEFAULT_VEHTYPE" speedFactor="1.09" vaporized=""/>
    <tripinfo id="20" depart="25.00" departLane="53o_0" departPos="5.10" departSpeed="0.00" departDelay="7.20" arrival="84.00" arrivalLane="54i_2" arrivalPos="10.00" arrivalSpeed="19.65" duration="59.00" routeLength="615.10" waitingTime="11.00" waitingCount="1" stopTime="0.00" timeLoss="27.49" rerouteNo="0" devices="tripinfo_20" vType="DEFAULT_VEHTYPE" speedFactor="1.02" vaporized=""/>
    <tripinfo id="33" depart="34.00" departLane="53o_0" departPos="5.10" departSpeed="0.00" departDelay="4.63" arrival="84.00" arrivalLane="54i_1" arrivalPos="10.00" arrivalSpeed="21.19" duration="50.00" routeLength="615.10" waitingTime="2.00" waitingCount="1" stopTime="0.00" timeLoss="22.25" rerouteNo="0" devices="tripinfo_33" vType="DEFAULT_VEHTYPE" speedFactor="1.17" vaporized=""/>
    <tripinfo id="36" depart="40.00" departLane="53o_0" departPos="5.10" departSpeed="0.00" departDelay="7.96" arrival="85.00" arrivalLane="54i_1" arrivalPos="10.00" arrivalSpeed="18.76" duration="45.00" routeLength="615.10" waitingTime="0.00" waitingCount="0" stopTime="0.00" timeLoss="12.43" rerouteNo="0" devices="tripinfo_36" vType="DEFAULT_VEHTYPE" speedFactor="0.97" vaporized=""/>
    <tripinfo id="16" depart="19.00" departLane="53o_0" departPos="5.10" departSpeed="0.00" departDelay="4.76" arrival="88.00" arrivalLane="52i_0" arrivalPos="10.00" arrivalSpeed="15.81" duration="69.00" routeLength="596.93" waitingTime="19.00" waitingCount="1" stopTime="0.00" timeLoss="32.52" rerouteNo="0" devices="tripinfo_16" vType="DEFAULT_VEHTYPE" speedFactor="0.88" vaporized=""/>
    <tripinfo id="24" depart="28.00" departLane="53o_0" departPos="5.10" departSpeed="0.00" departDelay="6.64" arrival="90.00" arrivalLane="51i_0" arrivalPos="10.00" arrivalSpeed="15.70" duration="62.00" routeLength="617.75" waitingTime="7.00" waitingCount="1" stopTime="0.00" timeLoss="21.80" rerouteNo="0" devices="tripinfo_24" vType="DEFAULT_VEHTYPE" speedFactor="0.83" vaporized=""/>
    <tripinfo id="34" depart="37.00" departLane="53o_0" departPos="5.10" departSpeed="0.00" departDelay="6.74" arrival="90.00" arrivalLane="52i_0" arrivalPos="10.00" arrivalSpeed="18.18" duration="53.00" routeLength="596.93" waitingTime="2.00" waitingCount="1" stopTime="0.00" timeLoss="20.28" rerouteNo="0" devices="tripinfo_34" vType="DEFAULT_VEHTYPE" speedFactor="0.99" vaporized=""/>
    <tripinfo id="45" depart="52.00" departLane="53o_0" departPos="5.10" departSpeed="0.00" departDelay="11.95" arrival="91.00" arrivalLane="52i_0" arrivalPos="10.00" arrivalSpeed="20.48" duration="39.00" routeLength="596.93" waitingTime="0.00" waitingCount="0" stopTime="0.00" timeLoss="10.15" rerouteNo="0" devices="tripinfo_45" vType="DEFAULT_VEHTYPE" speedFactor="1.09" vaporized=""/>
    <tripinfo id="26" depart="31.00" departLane="53o_0" departPos="5.10" departSpeed="0.00" departDelay="7.86" arrival="92.00" arrivalLane="51i_1" arrivalPos="10.00" arrivalSpeed="16.96" duration="61.00" routeLength="617.75" waitingTime="7.00" waitingCount="1" stopTime="0.00" timeLoss="24.55" rerouteNo="0" devices="tripinfo_26" vType="DEFAULT_VEHTYPE" speedFactor="0.92" vaporized=""/>
    <tripinfo id="39" depart="43.00" departLane="53o_0" departPos="5.10" departSpeed="0.00" departDelay="8.29" arrival="93.00" arrivalLane="54i_1" arrivalPos="10.00" arrivalSpeed="16.23" duration="50.00" routeLength="615.10" waitingTime="0.00" waitingCount="0" stopTime="0.00" timeLoss="14.03" rerouteNo="0" devices="tripinfo_39" vType="DEFAULT_VEHTYPE" speedFactor="0.90" vaporized=""/>
    <tripinfo id="43" depart="49.00" departLane="53o_0" departPos="5.10" departSpeed="0.00" departDelay="10.73" arrival="94.00" arrivalLane="54i_1" arrivalPos="10.00" arrivalSpeed="18.34" duration="45.00" routeLength="615.10" waitingTime="0.00" waitingCount="0" stopTime="0.00" timeLoss="14.18" rerouteNo="0" devices="tripinfo_43" vType="DEFAULT_VEHTYPE" speedFactor="1.04" vaporized=""/>
    <tripinfo id="41" depart="46.00" departLane="53o_0" departPos="5.10" departSpeed="0.00" departDelay="9.51" arrival="96.00" arrivalLane="51i_0" arrivalPos="10.00" arrivalSpeed="18.22" duration="50.00" routeLength="617.75" waitingTime="0.00" waitingCount="0" stopTime="0.00" timeLoss="14.98" rerouteNo="0" devices="tripinfo_41" vType="DEFAULT_VEHTYPE" speedFactor="0.96" vaporized=""/>
    <tripinfo id="48" depart="55.00" departLane="53o_0" departPos="5.10" departSpeed="0.00" departDelay="12.28" arrival="96.00" arrivalLane="54i_0" arrivalPos="10.00" arrivalSpeed="17.02" duration="41.00" routeLength="615.10" waitingTime="0.00" waitingCount="0" stopTime="0.00" timeLoss="4.90" rerouteNo="0" devices="tripinfo_48" vType="DEFAULT_VEHTYPE" speedFactor="0.88" vaporized=""/>
    <tripinfo id="49" depart="58.00" departLane="53o_0" departPos="5.10" departSpeed="0.00" departDelay="14.39" arrival="102.00" arrivalLane="52i_0" arrivalPos="10.00" arrivalSpeed="15.32" duration="44.00" routeLength="596.93" waitingTime="0.00" waitingCount="0" stopTime="0.00" timeLoss="7.14" rerouteNo="0" devices="tripinfo_49" vType="DEFAULT_VEHTYPE" speedFactor="0.85" vaporized=""/>
    <tripinfo id="56" depart="64.00" departLane="53o_0" departPos="5.10" departSpeed="0.00" departDelay="14.16" arrival="105.00" arrivalLane="54i_0" arrivalPos="10.00" arrivalSpeed="17.22" duration="41.00" routeLength="615.10" waitingTime="0.00" waitingCount="0" stopTime="0.00" timeLoss="4.88" rerouteNo="0" devices="tripinfo_56" vType="DEFAULT_VEHTYPE" speedFactor="0.90" vaporized=""/>
    <tripinfo id="50" depart="61.00" departLane="53o_0" departPos="5.10" departSpeed="0.00" departDelay="16.50" arrival="106.00" arrivalLane="51i_0" arrivalPos="10.00" arrivalSpeed="16.12" duration="45.00" routeLength="617.75" waitingTime="0.00" waitingCount="0" stopTime="0.00" timeLoss="6.59" rerouteNo="0" devices="tripinfo_50" vType="DEFAULT_VEHTYPE" speedFactor="0.85" vaporized=""/>
    <tripinfo id="63" depart="67.00" departLane="53o_0" departPos="5.10" departSpeed="0.00" departDelay="10.93" arrival="109.00" arrivalLane="51i_0" arrivalPos="10.00" arrivalSpeed="18.73" duration="42.00" routeLength="617.75" waitingTime="0.00" waitingCount="0" stopTime="0.00" timeLoss="7.76" rerouteNo="0" devices="tripinfo_63" vType="DEFAULT_VEHTYPE" speedFactor="0.99" vaporized=""/>
    <tripinfo id="79" depart="70.00" departLane="53o_0" departPos="5.10" departSpeed="0.00" departDelay="-0.31" arrival="109.00" arrivalLane="52i_0" arrivalPos="10.00" arrivalSpeed="20.67" duration="39.00" routeLength="596.93" waitingTime="0.00" waitingCount="0" stopTime="0.00" timeLoss="9.75" rerouteNo="0" devices="tripinfo_79" vType="DEFAULT_VEHTYPE" speedFactor="1.09" vaporized=""/>
    <tripinfo id="83" depart="73.00" departLane="53o_0" departPos="5.10" departSpeed="0.00" departDelay="-0.87" arrival="112.00" arrivalLane="54i_0" arrivalPos="10.00" arrivalSpeed="18.46" duration="39.00" routeLength="615.10" waitingTime="0.00" waitingCount="0" stopTime="0.00" timeLoss="5.36" rerouteNo="0" devices="tripinfo_83" vType="DEFAULT_VEHTYPE" speedFactor="0.97" vaporized=""/>
    <tripinfo id="86" depart="76.00" departLane="53o_0" departPos="5.10" departSpeed="0.00" departDelay="-0.54" arrival="117.00" arrivalLane="52i_0" arrivalPos="10.00" arrivalSpeed="19.42" duration="41.00" routeLength="596.93" waitingTime="0.00" waitingCount="0" stopTime="0.00" timeLoss="9.27" rerouteNo="0" devices="tripinfo_86" vType="DEFAULT_VEHTYPE" speedFactor="1.00" vaporized=""/>
    <tripinfo id="93" depart="82.00" departLane="53o_0" departPos="5.10" departSpeed="0.00" departDelay="-0.77" arrival="125.00" arrivalLane="51i_0" arrivalPos="10.00" arrivalSpeed="16.87" duration="43.00" routeLength="617.75" waitingTime="0.00" waitingCount="0" stopTime="0.00" timeLoss="6.95" rerouteNo="0" devices="tripinfo_93" vType="DEFAULT_VEHTYPE" speedFactor="0.92" vaporized=""/>
    <tripinfo id="101" depart="89.00" departLane="53o_0" departPos="5.10" departSpeed="0.00" departDelay="-0.89" arrival="132.00" arrivalLane="52i_0" arrivalPos="10.00" arrivalSpeed="18.42" duration="43.00" routeLength="596.93" waitingTime="0.00" waitingCount="0" stopTime="0.00" timeLoss="9.43" rerouteNo="0" devices="tripinfo_101" vType="DEFAULT_VEHTYPE" speedFactor="0.96" vaporized=""/>
    <tripinfo id="108" depart="96.00" departLane="53o_0" departPos="5.10" departSpeed="0.00" departDelay="-0.12" arrival="136.00" arrivalLane="51i_0" arrivalPos="10.00" arrivalSpeed="19.81" duration="40.00" routeLength="617.75" waitingTime="0.00" waitingCount="0" stopTime="0.00" timeLoss="8.14" rerouteNo="0" devices="tripinfo_108" vType="DEFAULT_VEHTYPE" speedFactor="1.06" vaporized=""/>
    <tripinfo id="109" depart="99.00" departLane="53o_0" departPos="5.10" departSpeed="0.00" departDelay="1.99" arrival="142.00" arrivalLane="51i_0" arrivalPos="10.00" arrivalSpeed="17.76" duration="43.00" routeLength="617.75" waitingTime="0.00" waitingCount="0" stopTime="0.00" timeLoss="7.98" rerouteNo="0" devices="tripinfo_109" vType="DEFAULT_VEHTYPE" speedFactor="0.96" vaporized=""/>
    <tripinfo id="112" depart="105.00" departLane="53o_0" departPos="5.10" departSpeed="0.00" departDelay="5.32" arrival="144.00" arrivalLane="51i_0" arrivalPos="10.00" arrivalSpeed="21.01" duration="39.00" routeLength="617.75" waitingTime="0.00" waitingCount="0" stopTime="0.00" timeLoss="8.84" rerouteNo="0" devices="tripinfo_112" vType="DEFAULT_VEHTYPE" speedFactor="1.10" vaporized=""/>
    <tripinfo id="111" depart="102.00" departLane="53o_0" departPos="5.10" departSpeed="0.00" departDelay="3.21" arrival="147.00" arrivalLane="52i_0" arrivalPos="10.00" arrivalSpeed="15.62" duration="45.00" routeLength="596.93" waitingTime="0.00" waitingCount="0" stopTime="0.00" timeLoss="8.11" rerouteNo="0" devices="tripinfo_111" vType="DEFAULT_VEHTYPE" speedFactor="0.87" vaporized=""/>
    <tripinfo id="120" depart="108.00" departLane="53o_0" departPos="5.10" departSpeed="0.00" departDelay="1.20" arrival="147.00" arrivalLane="54i_0" arrivalPos="10.00" arrivalSpeed="18.18" duration="39.00" routeLength="615.10" waitingTime="0.00" waitingCount="0" stopTime="0.00" timeLoss="5.30" rerouteNo="0" devices="tripinfo_120" vType="DEFAULT_VEHTYPE" speedFactor="0.94" vaporized=""/>
    <tripinfo id="125" depart="111.00" departLane="53o_0" departPos="5.10" departSpeed="0.00" departDelay="-0.25" arrival="149.00" arrivalLane="52i_0" arrivalPos="10.00" arrivalSpeed="22.29" duration="38.00" routeLength="596.93" waitingTime="0.00" waitingCount="0" stopTime="0.00" timeLoss="10.60" rerouteNo="0" devices="tripinfo_125" vType="DEFAULT_VEHTYPE" speedFactor="1.15" vaporized=""/>
    <tripinfo id="13" depart="11.00" departLane="51o_0" departPos="5.10" departSpeed="0.00" departDelay="-0.57" arrival="157.00" arrivalLane="53i_0" arrivalPos="10.00" arrivalSpeed="21.65" duration="146.00" routeLength="596.93" waitingTime="105.00" waitingCount="1" stopTime="0.00" timeLoss="117.97" rerouteNo="0" devices="tripinfo_13" vType="DEFAULT_VEHTYPE" speedFactor="1.12" vaporized=""/>
    <tripinfo id="19" depart="16.00" departLane="51o_0" departPos="5.10" departSpeed="0.00" departDelay="-0.91" arrival="159.00" arrivalLane="53i_0" arrivalPos="10.00" arrivalSpeed="21.56" duration="143.00" routeLength="596.93" waitingTime="101.00" waitingCount="1" stopTime="0.00" timeLoss="115.27" rerouteNo="0" devices="tripinfo_19" vType="DEFAULT_VEHTYPE" speedFactor="1.16" vaporized=""/>
    <tripinfo id="28" depart="26.00" departLane="51o_0" departPos="5.10" departSpeed="0.00" departDelay="1.08" arrival="160.00" arrivalLane="52i_2" arrivalPos="10.00" arrivalSpeed="13.36" duration="134.00" routeLength="615.10" waitingTime="91.00" waitingCount="1" stopTime="0.00" timeLoss="106.04" rerouteNo="0" devices="tripinfo_28" vType="DEFAULT_VEHTYPE" speedFactor="1.13" vaporized=""/>
    <tripinfo id="23" depart="20.00" departLane="51o_0" departPos="5.10" departSpeed="0.00" departDelay="-0.47" arrival="161.00" arrivalLane="52i_1" arrivalPos="10.00" arrivalSpeed="17.25" duration="141.00" routeLength="615.10" waitingTime="94.00" waitingCount="1" stopTime="0.00" timeLoss="104.86" rerouteNo="0" devices="tripinfo_23" vType="DEFAULT_VEHTYPE" speedFactor="0.89" vaporized=""/>
    <tripinfo id="9" depart="8.00" departLane="51o_0" departPos="5.10" departSpeed="0.00" departDelay="-0.01" arrival="162.00" arrivalLane="54i_0" arrivalPos="10.00" arrivalSpeed="15.54" duration="154.00" routeLength="617.75" waitingTime="103.00" waitingCount="1" stopTime="0.00" timeLoss="115.84" rerouteNo="0" devices="tripinfo_9" vType="DEFAULT_VEHTYPE" speedFactor="0.86" vaporized=""/>
    <tripinfo id="25" depart="23.00" departLane="51o_0" departPos="5.10" departSpeed="0.00" departDelay="0.75" arrival="163.00" arrivalLane="52i_1" arrivalPos="10.00" arrivalSpeed="16.89" duration="140.00" routeLength="615.10" waitingTime="90.00" waitingCount="1" stopTime="0.00" timeLoss="102.92" rerouteNo="0" devices="tripinfo_25" vType="DEFAULT_VEHTYPE" speedFactor="0.87" vaporized=""/>
    <tripinfo id="35" depart="31.00" departLane="51o_0" departPos="5.10" departSpeed="0.00" departDelay="-0.15" arrival="163.00" arrivalLane="52i_2" arrivalPos="10.00" arrivalSpeed="19.01" duration="132.00" routeLength="615.10" waitingTime="87.00" waitingCount="1" stopTime="0.00" timeLoss="100.08" rerouteNo="0" devices="tripinfo_35" vType="DEFAULT_VEHTYPE" speedFactor="1.02" vaporized=""/>
    <tripinfo id="44" depart="39.00" departLane="51o_0" departPos="5.10" departSpeed="0.00" departDelay="-0.16" arrival="163.00" arrivalLane="53i_0" arrivalPos="10.00" arrivalSpeed="19.53" duration="124.00" routeLength="596.93" waitingTime="78.00" waitingCount="1" stopTime="0.00" timeLoss="93.50" rerouteNo="0" devices="tripinfo_44" vType="DEFAULT_VEHTYPE" speedFactor="1.04" vaporized=""/>
    <tripinfo id="53" depart="47.00" departLane="51o_0" departPos="5.10" departSpeed="0.00" departDelay="-0.17" arrival="164.00" arrivalLane="52i_1" arrivalPos="10.00" arrivalSpeed="19.64" duration="117.00" routeLength="615.10" waitingTime="66.00" waitingCount="1" stopTime="0.00" timeLoss="87.82" rerouteNo="0" devices="tripinfo_53" vType="DEFAULT_VEHTYPE" speedFactor="1.10" vaporized=""/>
    <tripinfo id="54" depart="50.00" departLane="51o_0" departPos="5.10" departSpeed="0.00" departDelay="1.94" arrival="165.00" arrivalLane="52i_2" arrivalPos="10.00" arrivalSpeed="19.01" duration="115.00" routeLength="615.10" waitingTime="68.00" waitingCount="1" stopTime="0.00" timeLoss="82.54" rerouteNo="0" devices="tripinfo_54" vType="DEFAULT_VEHTYPE" speedFactor="1.00" vaporized=""/>
    <tripinfo id="76" depart="68.00" departLane="51o_0" departPos="5.10" departSpeed="0.00" departDelay="0.36" arrival="166.00" arrivalLane="52i_1" arrivalPos="10.00" arrivalSpeed="19.46" duration="98.00" routeLength="615.10" waitingTime="50.00" waitingCount="1" stopTime="0.00" timeLoss="66.62" rerouteNo="0" devices="tripinfo_76" vType="DEFAULT_VEHTYPE" speedFactor="1.03" vaporized=""/>
    <tripinfo id="85" depart="75.00" departLane="51o_0" departPos="5.10" departSpeed="0.00" departDelay="-0.65" arrival="166.00" arrivalLane="53i_0" arrivalPos="10.00" arrivalSpeed="18.49" duration="91.00" routeLength="596.93" waitingTime="44.00" waitingCount="1" stopTime="0.00" timeLoss="58.09" rerouteNo="0" devices="tripinfo_85" vType="DEFAULT_VEHTYPE" speedFactor="0.98" vaporized=""/>
    <tripinfo id="68" depart="62.00" departLane="51o_0" departPos="5.10" departSpeed="0.00" departDelay="1.48" arrival="167.00" arrivalLane="52i_1" arrivalPos="10.00" arrivalSpeed="19.26" duration="105.00" routeLength="615.10" waitingTime="52.00" waitingCount="2" stopTime="0.00" timeLoss="74.42" rerouteNo="0" devices="tripinfo_68" vType="DEFAULT_VEHTYPE" speedFactor="1.04" vaporized=""/>
    <tripinfo id="88" depart="78.00" departLane="51o_0" departPos="5.10" departSpeed="0.00" departDelay="-0.32" arrival="168.00" arrivalLane="53i_0" arrivalPos="10.00" arrivalSpeed="18.74" duration="90.00" routeLength="596.93" waitingTime="41.00" waitingCount="1" stopTime="0.00" timeLoss="58.65" rerouteNo="0" devices="tripinfo_88" vType="DEFAULT_VEHTYPE" speedFactor="1.01" vaporized=""/>
    <tripinfo id="98" depart="90.00" departLane="51o_0" departPos="5.10" departSpeed="0.00" departDelay="2.78" arrival="169.00" arrivalLane="52i_1" arrivalPos="10.00" arrivalSpeed="21.38" duration="79.00" routeLength="615.10" waitingTime="27.00" waitingCount="1" stopTime="0.00" timeLoss="50.03" rerouteNo="0" devices="tripinfo_98" vType="DEFAULT_VEHTYPE" speedFactor="1.12" vaporized=""/>
    <tripinfo id="67" depart="59.00" departLane="51o_0" departPos="5.10" departSpeed="0.00" departDelay="-0.63" arrival="170.00" arrivalLane="54i_0" arrivalPos="10.00" arrivalSpeed="17.01" duration="111.00" routeLength="617.75" waitingTime="60.00" waitingCount="1" stopTime="0.00" timeLoss="74.66" rerouteNo="0" devices="tripinfo_67" vType="DEFAULT_VEHTYPE" speedFactor="0.91" vaporized=""/>
    <tripinfo id="117" depart="104.00" departLane="51o_0" departPos="5.10" departSpeed="0.00" departDelay="-0.13" arrival="170.00" arrivalLane="52i_1" arrivalPos="10.00" arrivalSpeed="19.17" duration="66.00" routeLength="615.10" waitingTime="15.00" waitingCount="1" stopTime="0.00" timeLoss="34.49" rerouteNo="0" devices="tripinfo_117" vType="DEFAULT_VEHTYPE" speedFactor="1.00" vaporized=""/>
    <tripinfo id="89" depart="81.00" departLane="51o_0" departPos="5.10" departSpeed="0.00" departDelay="1.79" arrival="171.00" arrivalLane="53i_0" arrivalPos="10.00" arrivalSpeed="19.82" duration="90.00" routeLength="596.93" waitingTime="40.00" waitingCount="1" stopTime="0.00" timeLoss="58.08" rerouteNo="0" devices="tripinfo_89" vType="DEFAULT_VEHTYPE" speedFactor="1.02" vaporized=""/>
    <tripinfo id="71" depart="65.00" departLane="51o_0" departPos="5.10" departSpeed="0.00" departDelay="1.81" arrival="172.00" arrivalLane="54i_0" arrivalPos="10.00" arrivalSpeed="18.81" duration="107.00" routeLength="617.75" waitingTime="50.00" waitingCount="1" stopTime="0.00" timeLoss="72.35" rerouteNo="0" devices="tripinfo_71" vType="DEFAULT_VEHTYPE" speedFactor="0.97" vaporized=""/>
    <tripinfo id="94" depart="84.00" departLane="51o_0" departPos="5.10" departSpeed="0.00" departDelay="0.34" arrival="172.00" arrivalLane="53i_0" arrivalPos="10.00" arrivalSpeed="20.08" duration="88.00" routeLength="596.93" waitingTime="38.00" waitingCount="1" stopTime="0.00" timeLoss="59.28" rerouteNo="0" devices="tripinfo_94" vType="DEFAULT_VEHTYPE" speedFactor="1.09" vaporized=""/>
    <tripinfo id="137" depart="125.00" departLane="51o_0" departPos="5.10" departSpeed="0.00" departDelay="3.07" arrival="172.00" arrivalLane="52i_1" arrivalPos="10.00" arrivalSpeed="19.11" duration="47.00" routeLength="615.10" waitingTime="0.00" waitingCount="0" stopTime="0.00" timeLoss="15.43" rerouteNo="0" devices="tripinfo_137" vType="DEFAULT_VEHTYPE" speedFactor="1.02" vaporized=""/>
    <tripinfo id="139" depart="128.00" departLane="51o_0" departPos="5.10" departSpeed="0.00" departDelay="4.29" arrival="174.00" arrivalLane="52i_1" arrivalPos="10.00" arrivalSpeed="17.85" duration="46.00" routeLength="615.10" waitingTime="0.00" waitingCount="0" stopTime="0.00" timeLoss="12.50" rerouteNo="0" devices="tripinfo_139" vType="DEFAULT_VEHTYPE" speedFactor="0.95" vaporized=""/>
    <tripinfo id="97" depart="87.00" departLane="51o_0" departPos="5.10" departSpeed="0.00" departDelay="0.67" arrival="175.00" arrivalLane="54i_0" arrivalPos="10.00" arrivalSpeed="16.37" duration="88.00" routeLength="617.75" waitingTime="33.00" waitingCount="1" stopTime="0.00" timeLoss="51.79" rerouteNo="0" devices="tripinfo_97" vType="DEFAULT_VEHTYPE" speedFactor="0.91" vaporized=""/>
    <tripinfo id="106" depart="96.00" departLane="51o_0" departPos="5.10" departSpeed="0.00" departDelay="1.66" arrival="176.00" arrivalLane="53i_0" arrivalPos="10.00" arrivalSpeed="18.53" duration="80.00" routeLength="596.93" waitingTime="28.00" waitingCount="1" stopTime="0.00" timeLoss="48.06" rerouteNo="0" devices="tripinfo_106" vType="DEFAULT_VEHTYPE" speedFactor="1.01" vaporized=""/>
    <tripinfo id="102" depart="93.00" departLane="51o_0" departPos="5.10" departSpeed="0.00" departDelay="2.22" arrival="177.00" arrivalLane="54i_0" arrivalPos="10.00" arrivalSpeed="17.65" duration="84.00" routeLength="617.75" waitingTime="28.00" waitingCount="1" stopTime="0.00" timeLoss="49.49" rerouteNo="0" devices="tripinfo_102" vType="DEFAULT_VEHTYPE" speedFactor="0.97" vaporized=""/>
    <tripinfo id="145" depart="140.00" departLane="51o_0" departPos="5.10" departSpeed="0.00" departDelay="10.95" arrival="178.00" arrivalLane="52i_1" arrivalPos="10.00" arrivalSpeed="21.98" duration="38.00" routeLength="615.10" waitingTime="0.00" waitingCount="0" stopTime="0.00" timeLoss="9.62" rerouteNo="0" devices="tripinfo_145" vType="DEFAULT_VEHTYPE" speedFactor="1.14" vaporized=""/>
    <tripinfo id="126" depart="112.00" departLane="51o_0" departPos="5.10" departSpeed="0.00" departDelay="-0.14" arrival="179.00" arrivalLane="54i_0" arrivalPos="10.00" arrivalSpeed="19.65" duration="67.00" routeLength="617.75" waitingTime="14.00" waitingCount="1" stopTime="0.00" timeLoss="34.34" rerouteNo="0" devices="tripinfo_126" vType="DEFAULT_VEHTYPE" speedFactor="1.03" vaporized=""/>
    <tripinfo id="110" depart="99.00" departLane="51o_0" departPos="5.10" departSpeed="0.00" departDelay="1.10" arrival="180.00" arrivalLane="53i_0" arrivalPos="10.00" arrivalSpeed="17.08" duration="81.00" routeLength="596.93" waitingTime="27.00" waitingCount="1" stopTime="0.00" timeLoss="46.09" rerouteNo="0" devices="tripinfo_110" vType="DEFAULT_VEHTYPE" speedFactor="0.93" vaporized=""/>
    <tripinfo id="122" depart="108.00" departLane="51o_0" departPos="5.10" departSpeed="0.00" departDelay="-0.58" arrival="181.00" arrivalLane="53i_0" arrivalPos="10.00" arrivalSpeed="19.69" duration="73.00" routeLength="596.93" waitingTime="19.00" waitingCount="1" stopTime="0.00" timeLoss="42.49" rerouteNo="0" devices="tripinfo_122" vType="DEFAULT_VEHTYPE" speedFactor="1.03" vaporized=""/>
    <tripinfo id="132" depart="119.00" departLane="51o_0" departPos="5.10" departSpeed="0.00" departDelay="1.52" arrival="181.00" arrivalLane="54i_0" arrivalPos="10.00" arrivalSpeed="18.11" duration="62.00" routeLength="617.75" waitingTime="9.00" waitingCount="1" stopTime="0.00" timeLoss="27.69" rerouteNo="0" devices="tripinfo_132" vType="DEFAULT_VEHTYPE" speedFactor="0.96" vaporized=""/>
    <tripinfo id="131" depart="116.00" departLane="51o_0" departPos="5.10" departSpeed="0.00" departDelay="-0.59" arrival="183.00" arrivalLane="53i_0" arrivalPos="10.00" arrivalSpeed="20.23" duration="67.00" routeLength="596.93" waitingTime="12.00" waitingCount="1" stopTime="0.00" timeLoss="36.71" rerouteNo="0" devices="tripinfo_131" vType="DEFAULT_VEHTYPE" speedFactor="1.07" vaporized=""/>