<?xml version="1.0" encoding="UTF-8"?>

<!-- generated on Sat Nov  9 01:42:57 2019 by Eclipse SUMO Version 1.2.0
<configuration xmlns:xsi="http://www.w3.org/2001/XMLSchema-instance" xsi:noNamespaceSchemaLocation="http://sumo.dlr.de/xsd/sumoConfiguration.xsd">

    <input>
        <net-file value="simulation_files/sumocfgs/../networks/isolated_3_lanes_4_stages.net.xml"/>
        <route-files value="simulation_files/sumocfgs/../routes/isolated_3_lanes_80p.rou.xml"/>
    </input>

    <output>
        <tripinfo-output value="./output/exp21_rf_80p/throughput_pwtl__3_tripinfo_isolated.xml"/>
    </output>

    <time>
        <begin value="0"/>
        <step-length value="1"/>
    </time>

    <report>
        <verbose value="true"/>
        <no-step-log value="true"/>
    </report>

    <gui_only>
        <tracker-interval value="1"/>
    </gui_only>

</configuration>
-->

<tripinfos xmlns:xsi="http://www.w3.org/2001/XMLSchema-instance" xsi:noNamespaceSchemaLocation="http://sumo.dlr.de/xsd/tripinfo_file.xsd">
    <tripinfo id="1" depart="0.00" departLane="54o_0" departPos="5.10" departSpeed="0.00" departDelay="-0.89" arrival="40.00" arrivalLane="53i_0" arrivalPos="10.00" arrivalSpeed="17.63" duration="40.00" routeLength="615.10" waitingTime="0.00" waitingCount="0" stopTime="0.00" timeLoss="5.36" rerouteNo="0" devices="tripinfo_1" vType="DEFAULT_VEHTYPE" speedFactor="0.94" vaporized=""/>
    <tripinfo id="4" depart="3.00" departLane="54o_0" departPos="5.10" departSpeed="0.00" departDelay="-0.56" arrival="41.00" arrivalLane="53i_0" arrivalPos="10.00" arrivalSpeed="19.46" duration="38.00" routeLength="615.10" waitingTime="0.00" waitingCount="0" stopTime="0.00" timeLoss="6.91" rerouteNo="0" devices="tripinfo_4" vType="DEFAULT_VEHTYPE" speedFactor="1.03" vaporized=""/>
    <tripinfo id="3" depart="2.00" departLane="52o_0" departPos="5.10" departSpeed="0.00" departDelay="-0.67" arrival="46.00" arrivalLane="51i_0" arrivalPos="10.00" arrivalSpeed="20.37" duration="44.00" routeLength="615.10" waitingTime="2.00" waitingCount="1" stopTime="0.00" timeLoss="14.48" rerouteNo="0" devices="tripinfo_3" vType="DEFAULT_VEHTYPE" speedFactor="1.08" vaporized=""/>
    <tripinfo id="14" depart="12.00" departLane="52o_0" departPos="5.10" departSpeed="0.00" departDelay="-0.46" arrival="50.00" arrivalLane="51i_0" arrivalPos="10.00" arrivalSpeed="18.25" duration="38.00" routeLength="615.10" waitingTime="0.00" waitingCount="0" stopTime="0.00" timeLoss="5.20" rerouteNo="0" devices="tripinfo_14" vType="DEFAULT_VEHTYPE" speedFactor="0.99" vaporized=""/>
    <tripinfo id="21" depart="18.00" departLane="52o_0" departPos="5.10" departSpeed="0.00" departDelay="-0.69" arrival="55.00" arrivalLane="51i_0" arrivalPos="10.00" arrivalSpeed="19.41" duration="37.00" routeLength="615.10" waitingTime="0.00" waitingCount="0" stopTime="0.00" timeLoss="4.71" rerouteNo="0" devices="tripinfo_21" vType="DEFAULT_VEHTYPE" speedFactor="1.01" vaporized=""/>
    <tripinfo id="22" depart="21.00" departLane="52o_0" departPos="5.10" departSpeed="0.00" departDelay="1.42" arrival="60.00" arrivalLane="51i_0" arrivalPos="10.00" arrivalSpeed="17.97" duration="39.00" routeLength="615.10" waitingTime="0.00" waitingCount="0" stopTime="0.00" timeLoss="5.63" rerouteNo="0" devices="tripinfo_22" vType="DEFAULT_VEHTYPE" speedFactor="0.98" vaporized=""/>
    <tripinfo id="30" depart="26.00" departLane="52o_0" departPos="5.10" departSpeed="0.00" departDelay="-0.70" arrival="63.00" arrivalLane="53i_0" arrivalPos="10.00" arrivalSpeed="21.70" duration="37.00" routeLength="617.75" waitingTime="0.00" waitingCount="0" stopTime="0.00" timeLoss="8.78" rerouteNo="0" devices="tripinfo_30" vType="DEFAULT_VEHTYPE" speedFactor="1.18" vaporized=""/>
    <tripinfo id="31" depart="29.00" departLane="52o_0" departPos="5.10" departSpeed="0.00" departDelay="1.41" arrival="66.00" arrivalLane="54i_0" arrivalPos="10.00" arrivalSpeed="22.24" duration="37.00" routeLength="596.93" waitingTime="0.00" waitingCount="0" stopTime="0.00" timeLoss="9.40" rerouteNo="0" devices="tripinfo_31" vType="DEFAULT_VEHTYPE" speedFactor="1.15" vaporized=""/>
    <tripinfo id="0" depart="0.00" departLane="53o_0" departPos="5.10" departSpeed="0.00" departDelay="0.00" arrival="73.00" arrivalLane="54i_0" arrivalPos="10.00" arrivalSpeed="18.62" duration="73.00" routeLength="615.10" waitingTime="30.00" waitingCount="1" stopTime="0.00" timeLoss="42.72" rerouteNo="0" devices="tripinfo_0" vType="DEFAULT_VEHTYPE" speedFactor="1.06" vaporized=""/>
    <tripinfo id="2" depart="3.00" departLane="53o_0" departPos="5.10" departSpeed="0.00" departDelay="1.22" arrival="73.00" arrivalLane="54i_1" arrivalPos="10.00" arrivalSpeed="18.93" duration="70.00" routeLength="615.10" waitingTime="25.00" waitingCount="1" stopTime="0.00" timeLoss="38.09" rerouteNo="0" devices="tripinfo_2" vType="DEFAULT_VEHTYPE" speedFactor="1.01" vaporized=""/>
    <tripinfo id="11" depart="13.00" departLane="53o_0" departPos="5.10" departSpeed="0.00" departDelay="3.21" arrival="73.00" arrivalLane="51i_0" arrivalPos="10.00" arrivalSpeed="18.65" duration="60.00" routeLength="617.75" waitingTime="16.00" waitingCount="1" stopTime="0.00" timeLoss="28.00" rerouteNo="0" devices="tripinfo_11" vType="DEFAULT_VEHTYPE" speedFactor="1.03" vaporized=""/>
    <tripinfo id="18" depart="22.00" departLane="53o_0" departPos="5.10" departSpeed="0.00" departDelay="5.98" arrival="75.00" arrivalLane="54i_1" arrivalPos="10.00" arrivalSpeed="17.51" duration="53.00" routeLength="615.10" waitingTime="4.00" waitingCount="1" stopTime="0.00" timeLoss="19.16" rerouteNo="0" devices="tripinfo_18" vType="DEFAULT_VEHTYPE" speedFactor="0.94" vaporized=""/>
    <tripinfo id="8" depart="7.00" departLane="53o_0" departPos="5.10" departSpeed="0.00" departDelay="-0.12" arrival="77.00" arrivalLane="52i_0" arrivalPos="10.00" arrivalSpeed="17.01" duration="70.00" routeLength="596.93" waitingTime="21.00" waitingCount="1" stopTime="0.00" timeLoss="35.55" rerouteNo="0" devices="tripinfo_8" vType="DEFAULT_VEHTYPE" speedFactor="0.94" vaporized=""/>
    <tripinfo id="15" depart="16.00" departLane="53o_0" departPos="5.10" departSpeed="0.00" departDelay="2.65" arrival="77.00" arrivalLane="54i_2" arrivalPos="10.00" arrivalSpeed="17.54" duration="61.00" routeLength="615.10" waitingTime="12.00" waitingCount="1" stopTime="0.00" timeLoss="26.06" rerouteNo="0" devices="tripinfo_15" vType="DEFAULT_VEHTYPE" speedFactor="0.93" vaporized=""/>
    <tripinfo id="10" depart="10.00" departLane="53o_0" departPos="5.10" departSpeed="0.00" departDelay="1.10" arrival="78.00" arrivalLane="52i_0" arrivalPos="10.00" arrivalSpeed="19.99" duration="68.00" routeLength="596.93" waitingTime="21.00" waitingCount="1" stopTime="0.00" timeLoss="38.76" rerouteNo="0" devices="tripinfo_10" vType="DEFAULT_VEHTYPE" speedFactor="1.09" vaporized=""/>
    <tripinfo id="20" depart="25.00" departLane="53o_0" departPos="5.10" departSpeed="0.00" departDelay="7.20" arrival="78.00" arrivalLane="54i_2" arrivalPos="10.00" arrivalSpeed="18.77" duration="53.00" routeLength="615.10" waitingTime="5.00" waitingCount="1" stopTime="0.00" timeLoss="21.68" rerouteNo="0" devices="tripinfo_20" vType="DEFAULT_VEHTYPE" speedFactor="1.02" vaporized=""/>
    <tripinfo id="33" depart="34.00" departLane="53o_0" departPos="5.10" departSpeed="0.00" departDelay="4.63" arrival="78.00" arrivalLane="54i_1" arrivalPos="10.00" arrivalSpeed="20.83" duration="44.00" routeLength="615.10" waitingTime="0.00" waitingCount="0" stopTime="0.00" timeLoss="16.34" rerouteNo="0" devices="tripinfo_33" vType="DEFAULT_VEHTYPE" speedFactor="1.17" vaporized=""/>
    <tripinfo id="16" depart="19.00" departLane="53o_0" departPos="5.10" departSpeed="0.00" departDelay="4.76" arrival="82.00" arrivalLane="52i_0" arrivalPos="10.00" arrivalSpeed="15.81" duration="63.00" routeLength="596.93" waitingTime="13.00" waitingCount="1" stopTime="0.00" timeLoss="27.10" rerouteNo="0" devices="tripinfo_16" vType="DEFAULT_VEHTYPE" speedFactor="0.88" vaporized=""/>
    <tripinfo id="36" depart="40.00" departLane="53o_0" departPos="5.10" departSpeed="0.00" departDelay="7.96" arrival="82.00" arrivalLane="54i_1" arrivalPos="10.00" arrivalSpeed="18.41" duration="42.00" routeLength="615.10" waitingTime="0.00" waitingCount="0" stopTime="0.00" timeLoss="9.35" rerouteNo="0" devices="tripinfo_36" vType="DEFAULT_VEHTYPE" speedFactor="0.97" vaporized=""/>
    <tripinfo id="24" depart="28.00" departLane="53o_0" departPos="5.10" departSpeed="0.00" departDelay="6.64" arrival="84.00" arrivalLane="51i_0" arrivalPos="10.00" arrivalSpeed="14.89" duration="56.00" routeLength="617.75" waitingTime="1.00" waitingCount="1" stopTime="0.00" timeLoss="16.00" rerouteNo="0" devices="tripinfo_24" vType="DEFAULT_VEHTYPE" speedFactor="0.83" vaporized=""/>
    <tripinfo id="34" depart="37.00" departLane="53o_0" departPos="5.10" departSpeed="0.00" departDelay="6.74" arrival="84.00" arrivalLane="52i_0" arrivalPos="10.00" arrivalSpeed="18.18" duration="47.00" routeLength="596.93" waitingTime="0.00" waitingCount="0" stopTime="0.00" timeLoss="14.15" rerouteNo="0" devices="tripinfo_34" vType="DEFAULT_VEHTYPE" speedFactor="0.99" vaporized=""/>
    <tripinfo id="26" depart="31.00" departLane="53o_0" departPos="5.10" departSpeed="0.00" departDelay="7.86" arrival="86.00" arrivalLane="51i_0" arrivalPos="10.00" arrivalSpeed="17.48" duration="55.00" routeLength="617.75" waitingTime="2.00" waitingCount="1" stopTime="0.00" timeLoss="18.55" rerouteNo="0" devices="tripinfo_26" vType="DEFAULT_VEHTYPE" speedFactor="0.92" vaporized=""/>
    <tripinfo id="39" depart="43.00" departLane="53o_0" departPos="5.10" departSpeed="0.00" departDelay="8.29" arrival="86.00" arrivalLane="54i_0" arrivalPos="10.00" arrivalSpeed="17.26" duration="43.00" routeLength="615.10" waitingTime="0.00" waitingCount="0" stopTime="0.00" timeLoss="7.17" rerouteNo="0" devices="tripinfo_39" vType="DEFAULT_VEHTYPE" speedFactor="0.90" vaporized=""/>
    <tripinfo id="41" depart="46.00" departLane="53o_0" departPos="5.10" departSpeed="0.00" departDelay="9.51" arrival="89.00" arrivalLane="51i_0" arrivalPos="10.00" arrivalSpeed="18.52" duration="43.00" routeLength="617.75" waitingTime="0.00" waitingCount="0" stopTime="0.00" timeLoss="8.52" rerouteNo="0" devices="tripinfo_41" vType="DEFAULT_VEHTYPE" speedFactor="0.96" vaporized=""/>
    <tripinfo id="43" depart="49.00" departLane="53o_0" departPos="5.10" departSpeed="0.00" departDelay="10.73" arrival="89.00" arrivalLane="54i_2" arrivalPos="10.00" arrivalSpeed="19.38" duration="40.00" routeLength="615.10" waitingTime="0.00" waitingCount="0" stopTime="0.00" timeLoss="9.18" rerouteNo="0" devices="tripinfo_43" vType="DEFAULT_VEHTYPE" speedFactor="1.04" vaporized=""/>
    <tripinfo id="45" depart="52.00" departLane="53o_0" departPos="5.10" departSpeed="0.00" departDelay="11.95" arrival="92.00" arrivalLane="52i_0" arrivalPos="10.00" arrivalSpeed="20.48" duration="40.00" routeLength="596.93" waitingTime="0.00" waitingCount="0" stopTime="0.00" timeLoss="10.23" rerouteNo="0" devices="tripinfo_45" vType="DEFAULT_VEHTYPE" speedFactor="1.09" vaporized=""/>
    <tripinfo id="48" depart="55.00" departLane="53o_0" departPos="5.10" departSpeed="0.00" departDelay="12.28" arrival="97.00" arrivalLane="54i_0" arrivalPos="10.00" arrivalSpeed="16.71" duration="42.00" routeLength="615.10" waitingTime="0.00" waitingCount="0" stopTime="0.00" timeLoss="5.18" rerouteNo="0" devices="tripinfo_48" vType="DEFAULT_VEHTYPE" speedFactor="0.88" vaporized=""/>
    <tripinfo id="49" depart="58.00" departLane="53o_0" departPos="5.10" departSpeed="0.00" departDelay="14.39" arrival="104.00" arrivalLane="52i_0" arrivalPos="10.00" arrivalSpeed="15.53" duration="46.00" routeLength="596.93" waitingTime="0.00" waitingCount="0" stopTime="0.00" timeLoss="7.97" rerouteNo="0" devices="tripinfo_49" vType="DEFAULT_VEHTYPE" speedFactor="0.85" vaporized=""/>
    <tripinfo id="56" depart="64.00" departLane="53o_0" departPos="5.10" departSpeed="0.00" departDelay="14.16" arrival="105.00" arrivalLane="54i_0" arrivalPos="10.00" arrivalSpeed="16.70" duration="41.00" routeLength="615.10" waitingTime="0.00" waitingCount="0" stopTime="0.00" timeLoss="4.88" rerouteNo="0" devices="tripinfo_56" vType="DEFAULT_VEHTYPE" speedFactor="0.90" vaporized=""/>
    <tripinfo id="50" depart="61.00" departLane="53o_0" departPos="5.10" departSpeed="0.00" departDelay="16.50" arrival="106.00" arrivalLane="51i_0" arrivalPos="10.00" arrivalSpeed="15.79" duration="45.00" routeLength="617.75" waitingTime="0.00" waitingCount="0" stopTime="0.00" timeLoss="6.02" rerouteNo="0" devices="tripinfo_50" vType="DEFAULT_VEHTYPE" speedFactor="0.85" vaporized=""/>
    <tripinfo id="13" depart="11.00" departLane="51o_0" departPos="5.10" departSpeed="0.00" departDelay="-0.57" arrival="109.00" arrivalLane="53i_0" arrivalPos="10.00" arrivalSpeed="21.08" duration="98.00" routeLength="596.93" waitingTime="57.00" waitingCount="1" stopTime="0.00" timeLoss="69.62" rerouteNo="0" devices="tripinfo_13" vType="DEFAULT_VEHTYPE" speedFactor="1.12" vaporized=""/>
    <tripinfo id="19" depart="16.00" departLane="51o_0" departPos="5.10" departSpeed="0.00" departDelay="-0.91" arrival="111.00" arrivalLane="53i_0" arrivalPos="10.00" arrivalSpeed="22.45" duration="95.00" routeLength="596.93" waitingTime="53.00" waitingCount="1" stopTime="0.00" timeLoss="67.01" rerouteNo="0" devices="tripinfo_19" vType="DEFAULT_VEHTYPE" speedFactor="1.16" vaporized=""/>
    <tripinfo id="28" depart="26.00" departLane="51o_0" departPos="5.10" departSpeed="0.00" departDelay="1.08" arrival="111.00" arrivalLane="52i_2" arrivalPos="10.00" arrivalSpeed="21.47" duration="85.00" routeLength="615.10" waitingTime="43.00" waitingCount="1" stopTime="0.00" timeLoss="56.91" rerouteNo="0" devices="tripinfo_28" vType="DEFAULT_VEHTYPE" speedFactor="1.13" vaporized=""/>
    <tripinfo id="23" depart="20.00" departLane="51o_0" departPos="5.10" departSpeed="0.00" departDelay="-0.47" arrival="113.00" arrivalLane="52i_1" arrivalPos="10.00" arrivalSpeed="17.25" duration="93.00" routeLength="615.10" waitingTime="46.00" waitingCount="1" stopTime="0.00" timeLoss="56.52" rerouteNo="0" devices="tripinfo_23" vType="DEFAULT_VEHTYPE" speedFactor="0.89" vaporized=""/>
    <tripinfo id="9" depart="8.00" departLane="51o_0" departPos="5.10" departSpeed="0.00" departDelay="-0.01" arrival="114.00" arrivalLane="54i_0" arrivalPos="10.00" arrivalSpeed="16.23" duration="106.00" routeLength="617.75" waitingTime="55.00" waitingCount="1" stopTime="0.00" timeLoss="67.59" rerouteNo="0" devices="tripinfo_9" vType="DEFAULT_VEHTYPE" speedFactor="0.86" vaporized=""/>
    <tripinfo id="35" depart="31.00" departLane="51o_0" departPos="5.10" departSpeed="0.00" departDelay="-0.15" arrival="114.00" arrivalLane="52i_2" arrivalPos="10.00" arrivalSpeed="19.22" duration="83.00" routeLength="615.10" waitingTime="39.00" waitingCount="1" stopTime="0.00" timeLoss="51.83" rerouteNo="0" devices="tripinfo_35" vType="DEFAULT_VEHTYPE" speedFactor="1.02" vaporized=""/>
    <tripinfo id="25" depart="23.00" departLane="51o_0" departPos="5.10" departSpeed="0.00" departDelay="0.75" arrival="115.00" arrivalLane="52i_1" arrivalPos="10.00" arrivalSpeed="16.89" duration="92.00" routeLength="615.10" waitingTime="42.00" waitingCount="1" stopTime="0.00" timeLoss="55.29" rerouteNo="0" devices="tripinfo_25" vType="DEFAULT_VEHTYPE" speedFactor="0.87" vaporized=""/>
    <tripinfo id="44" depart="39.00" departLane="51o_0" departPos="5.10" departSpeed="0.00" departDelay="-0.16" arrival="115.00" arrivalLane="53i_0" arrivalPos="10.00" arrivalSpeed="19.28" duration="76.00" routeLength="596.93" waitingTime="29.00" waitingCount="1" stopTime="0.00" timeLoss="45.65" rerouteNo="0" devices="tripinfo_44" vType="DEFAULT_VEHTYPE" speedFactor="1.04" vaporized=""/>
    <tripinfo id="53" depart="47.00" departLane="51o_0" departPos="5.10" departSpeed="0.00" departDelay="-0.17" arrival="116.00" arrivalLane="52i_1" arrivalPos="10.00" arrivalSpeed="18.56" duration="69.00" routeLength="615.10" waitingTime="18.00" waitingCount="1" stopTime="0.00" timeLoss="40.13" rerouteNo="0" devices="tripinfo_53" vType="DEFAULT_VEHTYPE" speedFactor="1.10" vaporized=""/>
    <tripinfo id="54" depart="50.00" departLane="51o_0" departPos="5.10" departSpeed="0.00" departDelay="1.94" arrival="116.00" arrivalLane="52i_2" arrivalPos="10.00" arrivalSpeed="18.58" duration="66.00" routeLength="615.10" waitingTime="19.00" waitingCount="1" stopTime="0.00" timeLoss="34.04" rerouteNo="0" devices="tripinfo_54" vType="DEFAULT_VEHTYPE" speedFactor="1.00" vaporized=""/>
    <tripinfo id="68" depart="62.00" departLane="51o_0" departPos="5.10" departSpeed="0.00" departDelay="1.48" arrival="118.00" arrivalLane="52i_1" arrivalPos="10.00" arrivalSpeed="19.06" duration="56.00" routeLength="615.10" waitingTime="6.00" waitingCount="1" stopTime="0.00" timeLoss="25.15" rerouteNo="0" devices="tripinfo_68" vType="DEFAULT_VEHTYPE" speedFactor="1.04" vaporized=""/>
    <tripinfo id="85" depart="75.00" departLane="51o_0" departPos="5.10" departSpeed="0.00" departDelay="-0.65" arrival="118.00" arrivalLane="53i_0" arrivalPos="10.00" arrivalSpeed="17.76" duration="43.00" routeLength="596.93" waitingTime="0.00" waitingCount="0" stopTime="0.00" timeLoss="10.18" rerouteNo="0" devices="tripinfo_85" vType="DEFAULT_VEHTYPE" speedFactor="0.98" vaporized=""/>
    <tripinfo id="76" depart="68.00" departLane="51o_0" departPos="5.10" departSpeed="0.00" departDelay="0.36" arrival="120.00" arrivalLane="52i_1" arrivalPos="10.00" arrivalSpeed="19.46" duration="52.00" routeLength="615.10" waitingTime="4.00" waitingCount="1" stopTime="0.00" timeLoss="20.48" rerouteNo="0" devices="tripinfo_76" vType="DEFAULT_VEHTYPE" speedFactor="1.03" vaporized=""/>
    <tripinfo id="88" depart="78.00" departLane="51o_0" departPos="5.10" departSpeed="0.00" departDelay="-0.32" arrival="120.00" arrivalLane="53i_0" arrivalPos="10.00" arrivalSpeed="18.91" duration="42.00" routeLength="596.93" waitingTime="0.00" waitingCount="0" stopTime="0.00" timeLoss="10.46" rerouteNo="0" devices="tripinfo_88" vType="DEFAULT_VEHTYPE" speedFactor="1.01" vaporized=""/>
    <tripinfo id="67" depart="59.00" departLane="51o_0" departPos="5.10" departSpeed="0.00" departDelay="-0.63" arrival="122.00" arrivalLane="54i_0" arrivalPos="10.00" arrivalSpeed="17.03" duration="63.00" routeLength="617.75" waitingTime="12.00" waitingCount="1" stopTime="0.00" timeLoss="27.09" rerouteNo="0" devices="tripinfo_67" vType="DEFAULT_VEHTYPE" speedFactor="0.91" vaporized=""/>
    <tripinfo id="89" depart="81.00" departLane="51o_0" departPos="5.10" departSpeed="0.00" departDelay="1.79" arrival="124.00" arrivalLane="53i_0" arrivalPos="10.00" arrivalSpeed="19.82" duration="43.00" routeLength="596.93" waitingTime="0.00" waitingCount="0" stopTime="0.00" timeLoss="11.09" rerouteNo="0" devices="tripinfo_89" vType="DEFAULT_VEHTYPE" speedFactor="1.02" vaporized=""/>
    <tripinfo id="71" depart="65.00" departLane="51o_0" departPos="5.10" departSpeed="0.00" departDelay="1.81" arrival="125.00" arrivalLane="54i_0" arrivalPos="10.00" arrivalSpeed="18.81" duration="60.00" routeLength="617.75" waitingTime="8.00" waitingCount="1" stopTime="0.00" timeLoss="25.39" rerouteNo="0" devices="tripinfo_71" vType="DEFAULT_VEHTYPE" speedFactor="0.97" vaporized=""/>
    <tripinfo id="94" depart="84.00" departLane="51o_0" departPos="5.10" departSpeed="0.00" departDelay="0.34" arrival="125.00" arrivalLane="53i_0" arrivalPos="10.00" arrivalSpeed="19.94" duration="41.00" routeLength="596.93" waitingTime="0.00" waitingCount="0" stopTime="0.00" timeLoss="12.13" rerouteNo="0" devices="tripinfo_94" vType="DEFAULT_VEHTYPE" speedFactor="1.09" vaporized=""/>
    <tripinfo id="98" depart="90.00" departLane="51o_0" departPos="5.10" departSpeed="0.00" departDelay="2.78" arrival="125.00" arrivalLane="52i_1" arrivalPos="10.00" arrivalSpeed="21.23" duration="35.00" routeLength="615.10" waitingTime="0.00" waitingCount="0" stopTime="0.00" timeLoss="6.53" rerouteNo="0" devices="tripinfo_98" vType="DEFAULT_VEHTYPE" speedFactor="1.12" vaporized=""/>
    <tripinfo id="97" depart="87.00" departLane="51o_0" departPos="5.10" departSpeed="0.00" departDelay="0.67" arrival="131.00" arrivalLane="54i_0" arrivalPos="10.00" arrivalSpeed="16.88" duration="44.00" routeLength="617.75" waitingTime="0.00" waitingCount="0" stopTime="0.00" timeLoss="7.40" rerouteNo="0" devices="tripinfo_97" vType="DEFAULT_VEHTYPE" speedFactor="0.91" vaporized=""/>
    <tripinfo id="102" depart="93.00" departLane="51o_0" departPos="5.10" departSpeed="0.00" departDelay="2.22" arrival="135.00" arrivalLane="54i_0" arrivalPos="10.00" arrivalSpeed="18.66" duration="42.00" routeLength="617.75" waitingTime="0.00" waitingCount="0" stopTime="0.00" timeLoss="7.64" rerouteNo="0" devices="tripinfo_102" vType="DEFAULT_VEHTYPE" speedFactor="0.97" vaporized=""/>
    <tripinfo id="106" depart="96.00" departLane="51o_0" departPos="5.10" departSpeed="0.00" departDelay="1.66" arrival="137.00" arrivalLane="53i_0" arrivalPos="10.00" arrivalSpeed="18.53" duration="41.00" routeLength="596.93" waitingTime="0.00" waitingCount="0" stopTime="0.00" timeLoss="9.39" rerouteNo="0" devices="tripinfo_106" vType="DEFAULT_VEHTYPE" speedFactor="1.01" vaporized=""/>
    <tripinfo id="117" depart="104.00" departLane="51o_0" departPos="5.10" departSpeed="0.00" departDelay="-0.13" arrival="141.00" arrivalLane="52i_1" arrivalPos="10.00" arrivalSpeed="18.46" duration="37.00" routeLength="615.10" waitingTime="0.00" waitingCount="0" stopTime="0.00" timeLoss="5.28" rerouteNo="0" devices="tripinfo_117" vType="DEFAULT_VEHTYPE" speedFactor="1.00" vaporized=""/>
    <tripinfo id="110" depart="99.00" departLane="51o_0" departPos="5.10" departSpeed="0.00" departDelay="1.10" arrival="142.00" arrivalLane="53i_0" arrivalPos="10.00" arrivalSpeed="17.08" duration="43.00" routeLength="596.93" waitingTime="0.00" waitingCount="0" stopTime="0.00" timeLoss="8.91" rerouteNo="0" devices="tripinfo_110" vType="DEFAULT_VEHTYPE" speedFactor="0.93" vaporized=""/>
    <tripinfo id="122" depart="108.00" departLane="51o_0" departPos="5.10" departSpeed="0.00" departDelay="-0.58" arrival="147.00" arrivalLane="53i_0" arrivalPos="10.00" arrivalSpeed="18.77" duration="39.00" routeLength="596.93" waitingTime="0.00" waitingCount="0" stopTime="0.00" timeLoss="8.44" rerouteNo="0" devices="tripinfo_122" vType="DEFAULT_VEHTYPE" speedFactor="1.03" vaporized=""/>
    <tripinfo id="126" depart="112.00" departLane="51o_0" departPos="5.10" departSpeed="0.00" departDelay="-0.14" arrival="152.00" arrivalLane="54i_0" arrivalPos="10.00" arrivalSpeed="18.92" duration="40.00" routeLength="617.75" waitingTime="0.00" waitingCount="0" stopTime="0.00" timeLoss="7.42" rerouteNo="0" devices="tripinfo_126" vType="DEFAULT_VEHTYPE" speedFactor="1.03" vaporized=""/>
    <tripinfo id="131" depart="116.00" departLane="51o_0" departPos="5.10" departSpeed="0.00" departDelay="-0.59" arrival="155.00" arrivalLane="53i_0" arrivalPos="10.00" arrivalSpeed="20.34" duration="39.00" routeLength="596.93" waitingTime="0.00" waitingCount="0" stopTime="0.00" timeLoss="8.41" rerouteNo="0" devices="tripinfo_131" vType="DEFAULT_VEHTYPE" speedFactor="1.07" vaporized=""/>
    <tripinfo id="132" depart="119.00" departLane="51o_0" departPos="5.10" departSpeed="0.00" departDelay="1.52" arrival="161.00" arrivalLane="54i_0" arrivalPos="10.00" arrivalSpeed="18.41" duration="42.00" routeLength="617.75" waitingTime="0.00" waitingCount="0" stopTime="0.00" timeLoss="7.46" rerouteNo="0" devices="tripinfo_132" vType="DEFAULT_VEHTYPE" speedFactor="0.96" vaporized=""/>
    <tripinfo id="137" depart="125.00" departLane="51o_0" departPos="5.10" departSpeed="0.00" departDelay="3.07" arrival="162.00" arrivalLane="52i_0" arrivalPos="10.00" arrivalSpeed="19.22" duration="37.00" routeLength="615.10" waitingTime="0.00" waitingCount="0" stopTime="0.00" timeLoss="5.09" rerouteNo="0" devices="tripinfo_137" vType="DEFAULT_VEHTYPE" speedFactor="1.02" vaporized=""/>
    <tripinfo id="136" depart="122.00" departLane="51o_0" departPos="5.10" departSpeed="0.00" departDelay="0.96" arrival="163.00" arrivalLane="54i_0" arrivalPos="10.00" arrivalSpeed="21.34" duration="41.00" routeLength="617.75" waitingTime="0.00" waitingCount="0" stopTime="0.00" timeLoss="11.23" rerouteNo="0" devices="tripinfo_136" vType="DEFAULT_VEHTYPE" speedFactor="1.12" vaporized=""/>
    <tripinfo id="139" depart="128.00" departLane="51o_0" departPos="5.10" departSpeed="0.00" departDelay="4.29" arrival="167.00" arrivalLane="52i_0" arrivalPos="10.00" arrivalSpeed="17.68" duration="39.00" routeLength="615.10" waitingTime="0.00" waitingCount="0" stopTime="0.00" timeLoss="5.00" rerouteNo="0" devices="tripinfo_139" vType="DEFAULT_VEHTYPE" speedFactor="0.95" vaporized=""/>
    <tripinfo id="141" depart="131.00" departLane="51o_0" departPos="5.10" departSpeed="0.00" departDelay="5.51" arrival="169.00" arrivalLane="53i_0" arrivalPos="10.00" arrivalSpeed="22.22" duration="38.00" routeLength="596.93" waitingTime="0.00" waitingCount="0" stopTime="0.00" timeLoss="10.55" rerouteNo="0" devices="tripinfo_141" vType="DEFAULT_VEHTYPE" speedFactor="1.16" vaporized=""/>
    <tripinfo id="145" depart="140.00" departLane="51o_0" departPos="5.10" departSpeed="0.00" departDelay="10.95" arrival="173.00" arrivalLane="52i_1" arrivalPos="10.00" arrivalSpeed="22.04" duration="33.00" routeLength="615.10" waitingTime="0.00" waitingCount="0" stopTime="0.00" timeLoss="5.22" rerouteNo="0" devices="tripinfo_145" vType="DEFAULT_VEHTYPE" speedFactor="1.14" vaporized=""/>
    <tripinfo id="142" depart="134.00" departLane="51o_0" departPos="5.10" departSpeed="0.00" departDelay="7.62" arrival="176.00" arrivalLane="53i_0" arrivalPos="10.00" arrivalSpeed="17.64" duration="42.00" routeLength="596.93" waitingTime="0.00" waitingCount="0" stopTime="0.00" timeLoss="8.35" rerouteNo="0" devices="tripinfo_142" vType="DEFAULT_VEHTYPE" speedFactor="0.94" vaporized=""/>
    <tripinfo id="152" depart="143.00" departLane="51o_0" departPos="5.10" departSpeed="0.00" departDelay="7.72" arrival="185.00" arrivalLane="54i_1" arrivalPos="10.00" arrivalSpeed="19.55" duration="42.00" routeLength="617.75" waitingTime="0.00" waitingCount="0" stopTime="0.00" timeLoss="10.64" rerouteNo="0" devices="tripinfo_152" vType="DEFAULT_VEHTYPE" speedFactor="1.07" vaporized=""/>
    <tripinfo id="144" depart="137.00" departLane="51o_0" departPos="5.10" departSpeed="0.00" departDelay="8.84" arrival="189.00" arrivalLane="54i_0" arrivalPos="10.00" arrivalSpeed="13.09" duration="52.00" routeLength="617.75" waitingTime="0.00" waitingCount="0" stopTime="0.00" timeLoss="6.97" rerouteNo="0" devices="tripinfo_144" vType="DEFAULT_VEHTYPE" speedFactor="0.73" vaporized=""/>
    <tripinfo id="162" depart="152.00" departLane="51o_0" departPos="5.10" departSpeed="0.00" departDelay="7.82" arrival="189.00" arrivalLane="52i_0" arrivalPos="10.00" arrivalSpeed="18.24" duration="37.00" routeLength="615.10" waitingTime="0.00" waitingCount="0" stopTime="0.00" timeLoss="5.09" rerouteNo="0" devices="tripinfo_162" vType="DEFAULT_VEHTYPE" speedFactor="0.99" vaporized=""/>
    <tripinfo id="153" depart="146.00" departLane="51o_0" departPos="5.10" departSpeed="0.00" departDelay="9.83" arrival="190.00" arrivalLane="54i_1" arrivalPos="10.00" arrivalSpeed="17.03" duration="44.00" routeLength="617.75" waitingTime="0.00" waitingCount="0" stopTime="0.00" timeLoss="8.22" rerouteNo="0" devices="tripinfo_153" vType="DEFAULT_VEHTYPE" speedFactor="0.93" vaporized=""/>
    <tripinfo id="161" depart="149.00" departLane="51o_0" departPos="5.10" departSpeed="0.00" departDelay="5.71" arrival="191.00" arrivalLane="54i_0" arrivalPos="10.00" arrivalSpeed="19.74" duration="42.00" routeLength="617.75" waitingTime="0.00" waitingCount="0" stopTime="0.00" timeLoss="11.50" rerouteNo="0" devices="tripinfo_161" vType="DEFAULT_VEHTYPE" speedFactor="1.08" vaporized=""/>
    <tripinfo id="164" depart="155.00" departLane="51o_0" departPos="5.10" departSpeed="0.00" departDelay="9.04" arrival="196.00" arrivalLane="54i_0" arrivalPos="10.00" arrivalSpeed="20.04" duration="41.00" routeLength="617.75" waitingTime="0.00" waitingCount="0" stopTime="0.00" timeLoss="9.06" rerouteNo="0" devices="tripinfo_164" vType="DEFAULT_VEHTYPE" speedFactor="1.05" vaporized=""/>
    <tripinfo id="165" depart="158.00" departLane="51o_0" departPos="5.10" departSpeed="0.00" departDelay="11.15" arrival="199.00" arrivalLane="52i_0" arrivalPos="10.00" arrivalSpeed="16.72" duration="41.00" routeLength="615.10" waitingTime="0.00" waitingCount="0" stopTime="0.00" timeLoss="5.70" rerouteNo="0" devices="tripinfo_165" vType="DEFAULT_VEHTYPE" speedFactor="0.91" vaporized=""/>
    <tripinfo id="166" depart="161.00" departLane="51o_0" departPos="5.10" departSpeed="0.00" departDelay="13.26" arrival="203.00" arrivalLane="53i_0" arrivalPos="10.00" arrivalSpeed="18.47" duration="42.00" routeLength="596.93" waitingTime="0.00" waitingCount="0" stopTime="0.00" timeLoss="10.57" rerouteNo="0" devices="tripinfo_166" vType="DEFAULT_VEHTYPE" speedFactor="1.00" vaporized=""/>
    <tripinfo id="167" depart="165.00" departLane="51o_0" departPos="5.10" departSpeed="0.00" departDelay="16.37" arrival="205.00" arrivalLane="54i_0" arrivalPos="10.00" arrivalSpeed="19.84" duration="40.00" routeLength="617.75" waitingTime="0.00" waitingCount="0" stopTime="0.00" timeLoss="7.67" rerouteNo="0" devices="tripinfo_167" vType="DEFAULT_VEHTYPE" speedFactor="1.03" vaporized=""/>
    <tripinfo id="168" depart="168.00" departLane="51o_0" departPos="5.10" departSpeed="0.00" departDelay="18.48" arrival="206.00" arrivalLane="52i_0" arrivalPos="10.00" arrivalSpeed="18.70" duration="38.00" routeLength="615.10" waitingTime="0.00" waitingCount="0" stopTime="0.00" timeLoss="4.89" rerouteNo="0" devices="tripinfo_168" vType="DEFAULT_VEHTYPE" speedFactor="0.98" vaporized=""/>