<?xml version="1.0" encoding="UTF-8"?>

<!-- generated on Sat Nov  9 01:49:37 2019 by Eclipse SUMO Version 1.2.0
<configuration xmlns:xsi="http://www.w3.org/2001/XMLSchema-instance" xsi:noNamespaceSchemaLocation="http://sumo.dlr.de/xsd/sumoConfiguration.xsd">

    <input>
        <net-file value="simulation_files/sumocfgs/../networks/isolated_3_lanes_4_stages.net.xml"/>
        <route-files value="simulation_files/sumocfgs/../routes/isolated_3_lanes_80p.rou.xml"/>
    </input>

    <output>
        <tripinfo-output value="./output/exp21_rf_80p/throughput_pwtl__4_tripinfo_isolated.xml"/>
    </output>

    <time>
        <begin value="0"/>
        <step-length value="1"/>
    </time>

    <report>
        <verbose value="true"/>
        <no-step-log value="true"/>
    </report>

    <gui_only>
        <tracker-interval value="1"/>
    </gui_only>

</configuration>
-->

<tripinfos xmlns:xsi="http://www.w3.org/2001/XMLSchema-instance" xsi:noNamespaceSchemaLocation="http://sumo.dlr.de/xsd/tripinfo_file.xsd">
    <tripinfo id="1" depart="0.00" departLane="54o_0" departPos="5.10" departSpeed="0.00" departDelay="-0.89" arrival="40.00" arrivalLane="53i_0" arrivalPos="10.00" arrivalSpeed="17.63" duration="40.00" routeLength="615.10" waitingTime="0.00" waitingCount="0" stopTime="0.00" timeLoss="5.36" rerouteNo="0" devices="tripinfo_1" vType="DEFAULT_VEHTYPE" speedFactor="0.94" vaporized=""/>
    <tripinfo id="4" depart="3.00" departLane="54o_0" departPos="5.10" departSpeed="0.00" departDelay="-0.56" arrival="41.00" arrivalLane="53i_0" arrivalPos="10.00" arrivalSpeed="19.46" duration="38.00" routeLength="615.10" waitingTime="0.00" waitingCount="0" stopTime="0.00" timeLoss="6.91" rerouteNo="0" devices="tripinfo_4" vType="DEFAULT_VEHTYPE" speedFactor="1.03" vaporized=""/>
    <tripinfo id="3" depart="2.00" departLane="52o_0" departPos="5.10" departSpeed="0.00" departDelay="-0.67" arrival="46.00" arrivalLane="51i_0" arrivalPos="10.00" arrivalSpeed="20.37" duration="44.00" routeLength="615.10" waitingTime="2.00" waitingCount="1" stopTime="0.00" timeLoss="14.48" rerouteNo="0" devices="tripinfo_3" vType="DEFAULT_VEHTYPE" speedFactor="1.08" vaporized=""/>
    <tripinfo id="14" depart="12.00" departLane="52o_0" departPos="5.10" departSpeed="0.00" departDelay="-0.46" arrival="50.00" arrivalLane="51i_0" arrivalPos="10.00" arrivalSpeed="18.25" duration="38.00" routeLength="615.10" waitingTime="0.00" waitingCount="0" stopTime="0.00" timeLoss="5.20" rerouteNo="0" devices="tripinfo_14" vType="DEFAULT_VEHTYPE" speedFactor="0.99" vaporized=""/>
    <tripinfo id="21" depart="18.00" departLane="52o_0" departPos="5.10" departSpeed="0.00" departDelay="-0.69" arrival="55.00" arrivalLane="51i_0" arrivalPos="10.00" arrivalSpeed="19.41" duration="37.00" routeLength="615.10" waitingTime="0.00" waitingCount="0" stopTime="0.00" timeLoss="4.71" rerouteNo="0" devices="tripinfo_21" vType="DEFAULT_VEHTYPE" speedFactor="1.01" vaporized=""/>
    <tripinfo id="22" depart="21.00" departLane="52o_0" departPos="5.10" departSpeed="0.00" departDelay="1.42" arrival="60.00" arrivalLane="51i_0" arrivalPos="10.00" arrivalSpeed="17.97" duration="39.00" routeLength="615.10" waitingTime="0.00" waitingCount="0" stopTime="0.00" timeLoss="5.67" rerouteNo="0" devices="tripinfo_22" vType="DEFAULT_VEHTYPE" speedFactor="0.98" vaporized=""/>
    <tripinfo id="30" depart="26.00" departLane="52o_0" departPos="5.10" departSpeed="0.00" departDelay="-0.70" arrival="63.00" arrivalLane="53i_0" arrivalPos="10.00" arrivalSpeed="21.78" duration="37.00" routeLength="617.75" waitingTime="0.00" waitingCount="0" stopTime="0.00" timeLoss="8.70" rerouteNo="0" devices="tripinfo_30" vType="DEFAULT_VEHTYPE" speedFactor="1.18" vaporized=""/>
    <tripinfo id="31" depart="29.00" departLane="52o_0" departPos="5.10" departSpeed="0.00" departDelay="1.41" arrival="66.00" arrivalLane="54i_0" arrivalPos="10.00" arrivalSpeed="21.31" duration="37.00" routeLength="596.93" waitingTime="0.00" waitingCount="0" stopTime="0.00" timeLoss="9.47" rerouteNo="0" devices="tripinfo_31" vType="DEFAULT_VEHTYPE" speedFactor="1.15" vaporized=""/>
    <tripinfo id="38" depart="33.00" departLane="52o_0" departPos="5.10" departSpeed="0.00" departDelay="-0.82" arrival="72.00" arrivalLane="54i_0" arrivalPos="10.00" arrivalSpeed="20.93" duration="39.00" routeLength="596.93" waitingTime="0.00" waitingCount="0" stopTime="0.00" timeLoss="9.64" rerouteNo="0" devices="tripinfo_38" vType="DEFAULT_VEHTYPE" speedFactor="1.10" vaporized=""/>
    <tripinfo id="40" depart="36.00" departLane="52o_0" departPos="5.10" departSpeed="0.00" departDelay="0.40" arrival="77.00" arrivalLane="54i_0" arrivalPos="10.00" arrivalSpeed="19.04" duration="41.00" routeLength="596.93" waitingTime="0.00" waitingCount="0" stopTime="0.00" timeLoss="9.88" rerouteNo="0" devices="tripinfo_40" vType="DEFAULT_VEHTYPE" speedFactor="1.03" vaporized=""/>
    <tripinfo id="42" depart="39.00" departLane="52o_0" departPos="5.10" departSpeed="0.00" departDelay="1.62" arrival="78.00" arrivalLane="53i_0" arrivalPos="10.00" arrivalSpeed="20.48" duration="39.00" routeLength="617.75" waitingTime="0.00" waitingCount="0" stopTime="0.00" timeLoss="7.78" rerouteNo="0" devices="tripinfo_42" vType="DEFAULT_VEHTYPE" speedFactor="1.09" vaporized=""/>
    <tripinfo id="46" depart="42.00" departLane="52o_0" departPos="5.10" departSpeed="0.00" departDelay="1.06" arrival="80.00" arrivalLane="51i_0" arrivalPos="10.00" arrivalSpeed="19.04" duration="38.00" routeLength="615.10" waitingTime="0.00" waitingCount="0" stopTime="0.00" timeLoss="5.80" rerouteNo="0" devices="tripinfo_46" vType="DEFAULT_VEHTYPE" speedFactor="1.00" vaporized=""/>
    <tripinfo id="52" depart="48.00" departLane="52o_0" departPos="5.10" departSpeed="0.00" departDelay="1.72" arrival="85.00" arrivalLane="51i_0" arrivalPos="10.00" arrivalSpeed="19.38" duration="37.00" routeLength="615.10" waitingTime="0.00" waitingCount="0" stopTime="0.00" timeLoss="5.33" rerouteNo="0" devices="tripinfo_52" vType="DEFAULT_VEHTYPE" speedFactor="1.02" vaporized=""/>
    <tripinfo id="58" depart="51.00" departLane="52o_0" departPos="5.10" departSpeed="0.00" departDelay="-0.62" arrival="88.00" arrivalLane="51i_0" arrivalPos="10.00" arrivalSpeed="19.71" duration="37.00" routeLength="615.10" waitingTime="0.00" waitingCount="0" stopTime="0.00" timeLoss="5.88" rerouteNo="0" devices="tripinfo_58" vType="DEFAULT_VEHTYPE" speedFactor="1.02" vaporized=""/>
    <tripinfo id="47" depart="45.00" departLane="52o_0" departPos="5.10" departSpeed="0.00" departDelay="3.17" arrival="89.00" arrivalLane="53i_0" arrivalPos="10.00" arrivalSpeed="17.45" duration="44.00" routeLength="617.75" waitingTime="0.00" waitingCount="0" stopTime="0.00" timeLoss="6.36" rerouteNo="0" devices="tripinfo_47" vType="DEFAULT_VEHTYPE" speedFactor="0.90" vaporized=""/>
    <tripinfo id="59" depart="54.00" departLane="52o_0" departPos="5.10" departSpeed="0.00" departDelay="1.49" arrival="96.00" arrivalLane="53i_0" arrivalPos="10.00" arrivalSpeed="17.66" duration="42.00" routeLength="617.75" waitingTime="0.00" waitingCount="0" stopTime="0.00" timeLoss="7.43" rerouteNo="0" devices="tripinfo_59" vType="DEFAULT_VEHTYPE" speedFactor="0.97" vaporized=""/>
    <tripinfo id="61" depart="57.00" departLane="52o_0" departPos="5.10" departSpeed="0.00" departDelay="2.71" arrival="98.00" arrivalLane="53i_0" arrivalPos="10.00" arrivalSpeed="20.81" duration="41.00" routeLength="617.75" waitingTime="0.00" waitingCount="0" stopTime="0.00" timeLoss="11.28" rerouteNo="0" devices="tripinfo_61" vType="DEFAULT_VEHTYPE" speedFactor="1.12" vaporized=""/>
    <tripinfo id="66" depart="60.00" departLane="52o_0" departPos="5.10" departSpeed="0.00" departDelay="1.26" arrival="104.00" arrivalLane="53i_0" arrivalPos="10.00" arrivalSpeed="16.63" duration="44.00" routeLength="617.75" waitingTime="0.00" waitingCount="0" stopTime="0.00" timeLoss="7.50" rerouteNo="0" devices="tripinfo_66" vType="DEFAULT_VEHTYPE" speedFactor="0.91" vaporized=""/>
    <tripinfo id="69" depart="63.00" departLane="52o_0" departPos="5.10" departSpeed="0.00" departDelay="1.59" arrival="106.00" arrivalLane="53i_0" arrivalPos="10.00" arrivalSpeed="19.44" duration="43.00" routeLength="617.75" waitingTime="0.00" waitingCount="0" stopTime="0.00" timeLoss="10.12" rerouteNo="0" devices="tripinfo_69" vType="DEFAULT_VEHTYPE" speedFactor="1.02" vaporized=""/>
    <tripinfo id="72" depart="66.00" departLane="52o_0" departPos="5.10" departSpeed="0.00" departDelay="1.92" arrival="106.00" arrivalLane="51i_0" arrivalPos="10.00" arrivalSpeed="17.82" duration="40.00" routeLength="615.10" waitingTime="0.00" waitingCount="0" stopTime="0.00" timeLoss="5.85" rerouteNo="0" devices="tripinfo_72" vType="DEFAULT_VEHTYPE" speedFactor="0.94" vaporized=""/>
    <tripinfo id="73" depart="69.00" departLane="52o_0" departPos="5.10" departSpeed="0.00" departDelay="4.03" arrival="109.00" arrivalLane="54i_0" arrivalPos="10.00" arrivalSpeed="20.20" duration="40.00" routeLength="596.93" waitingTime="0.00" waitingCount="0" stopTime="0.00" timeLoss="9.52" rerouteNo="0" devices="tripinfo_73" vType="DEFAULT_VEHTYPE" speedFactor="1.06" vaporized=""/>
    <tripinfo id="80" depart="72.00" departLane="52o_0" departPos="5.10" departSpeed="0.00" departDelay="0.80" arrival="110.00" arrivalLane="51i_1" arrivalPos="10.00" arrivalSpeed="19.24" duration="38.00" routeLength="615.10" waitingTime="0.00" waitingCount="0" stopTime="0.00" timeLoss="6.57" rerouteNo="0" devices="tripinfo_80" vType="DEFAULT_VEHTYPE" speedFactor="1.03" vaporized=""/>
    <tripinfo id="84" depart="75.00" departLane="52o_0" departPos="5.10" departSpeed="0.00" departDelay="0.24" arrival="114.00" arrivalLane="53i_0" arrivalPos="10.00" arrivalSpeed="21.89" duration="39.00" routeLength="617.75" waitingTime="0.00" waitingCount="0" stopTime="0.00" timeLoss="9.27" rerouteNo="0" devices="tripinfo_84" vType="DEFAULT_VEHTYPE" speedFactor="1.15" vaporized=""/>
    <tripinfo id="87" depart="78.00" departLane="52o_0" departPos="5.10" departSpeed="0.00" departDelay="0.57" arrival="117.00" arrivalLane="54i_0" arrivalPos="10.00" arrivalSpeed="19.48" duration="39.00" routeLength="596.93" waitingTime="0.00" waitingCount="0" stopTime="0.00" timeLoss="8.84" rerouteNo="0" devices="tripinfo_87" vType="DEFAULT_VEHTYPE" speedFactor="1.04" vaporized=""/>
    <tripinfo id="90" depart="81.00" departLane="52o_0" departPos="5.10" departSpeed="0.00" departDelay="0.90" arrival="122.00" arrivalLane="54i_0" arrivalPos="10.00" arrivalSpeed="19.43" duration="41.00" routeLength="596.93" waitingTime="0.00" waitingCount="0" stopTime="0.00" timeLoss="9.39" rerouteNo="0" devices="tripinfo_90" vType="DEFAULT_VEHTYPE" speedFactor="1.02" vaporized=""/>
    <tripinfo id="95" depart="87.00" departLane="52o_0" departPos="5.10" departSpeed="0.00" departDelay="2.45" arrival="126.00" arrivalLane="53i_0" arrivalPos="10.00" arrivalSpeed="20.28" duration="39.00" routeLength="617.75" waitingTime="0.00" waitingCount="0" stopTime="0.00" timeLoss="7.41" rerouteNo="0" devices="tripinfo_95" vType="DEFAULT_VEHTYPE" speedFactor="1.06" vaporized=""/>
    <tripinfo id="92" depart="84.00" departLane="52o_0" departPos="5.10" departSpeed="0.00" departDelay="2.12" arrival="128.00" arrivalLane="51i_0" arrivalPos="10.00" arrivalSpeed="15.64" duration="44.00" routeLength="615.10" waitingTime="0.00" waitingCount="0" stopTime="0.00" timeLoss="5.90" rerouteNo="0" devices="tripinfo_92" vType="DEFAULT_VEHTYPE" speedFactor="0.83" vaporized=""/>
    <tripinfo id="96" depart="90.00" departLane="52o_0" departPos="5.10" departSpeed="0.00" departDelay="4.56" arrival="131.00" arrivalLane="53i_0" arrivalPos="10.00" arrivalSpeed="18.47" duration="41.00" routeLength="617.75" waitingTime="0.00" waitingCount="0" stopTime="0.00" timeLoss="8.49" rerouteNo="0" devices="tripinfo_96" vType="DEFAULT_VEHTYPE" speedFactor="1.01" vaporized=""/>
    <tripinfo id="105" depart="96.00" departLane="52o_0" departPos="5.10" departSpeed="0.00" departDelay="2.55" arrival="131.00" arrivalLane="51i_0" arrivalPos="10.00" arrivalSpeed="20.38" duration="35.00" routeLength="615.10" waitingTime="0.00" waitingCount="0" stopTime="0.00" timeLoss="5.30" rerouteNo="0" devices="tripinfo_105" vType="DEFAULT_VEHTYPE" speedFactor="1.07" vaporized=""/>
    <tripinfo id="100" depart="93.00" departLane="52o_0" departPos="5.10" departSpeed="0.00" departDelay="4.00" arrival="134.00" arrivalLane="53i_0" arrivalPos="10.00" arrivalSpeed="20.03" duration="41.00" routeLength="617.75" waitingTime="0.00" waitingCount="0" stopTime="0.00" timeLoss="10.08" rerouteNo="0" devices="tripinfo_100" vType="DEFAULT_VEHTYPE" speedFactor="1.07" vaporized=""/>
    <tripinfo id="107" depart="99.00" departLane="52o_0" departPos="5.10" departSpeed="0.00" departDelay="3.77" arrival="136.00" arrivalLane="51i_0" arrivalPos="10.00" arrivalSpeed="19.07" duration="37.00" routeLength="615.10" waitingTime="0.00" waitingCount="0" stopTime="0.00" timeLoss="5.64" rerouteNo="0" devices="tripinfo_107" vType="DEFAULT_VEHTYPE" speedFactor="1.03" vaporized=""/>
    <tripinfo id="0" depart="0.00" departLane="53o_0" departPos="5.10" departSpeed="0.00" departDelay="0.00" arrival="144.00" arrivalLane="54i_0" arrivalPos="10.00" arrivalSpeed="19.31" duration="144.00" routeLength="615.10" waitingTime="102.00" waitingCount="1" stopTime="0.00" timeLoss="114.01" rerouteNo="0" devices="tripinfo_0" vType="DEFAULT_VEHTYPE" speedFactor="1.06" vaporized=""/>
    <tripinfo id="2" depart="3.00" departLane="53o_0" departPos="5.10" departSpeed="0.00" departDelay="1.22" arrival="145.00" arrivalLane="54i_1" arrivalPos="10.00" arrivalSpeed="18.93" duration="142.00" routeLength="615.10" waitingTime="97.00" waitingCount="1" stopTime="0.00" timeLoss="110.18" rerouteNo="0" devices="tripinfo_2" vType="DEFAULT_VEHTYPE" speedFactor="1.01" vaporized=""/>
    <tripinfo id="11" depart="13.00" departLane="53o_0" departPos="5.10" departSpeed="0.00" departDelay="3.21" arrival="145.00" arrivalLane="51i_0" arrivalPos="10.00" arrivalSpeed="18.94" duration="132.00" routeLength="617.75" waitingTime="88.00" waitingCount="1" stopTime="0.00" timeLoss="99.91" rerouteNo="0" devices="tripinfo_11" vType="DEFAULT_VEHTYPE" speedFactor="1.03" vaporized=""/>
    <tripinfo id="8" depart="7.00" departLane="53o_0" departPos="5.10" departSpeed="0.00" departDelay="-0.12" arrival="148.00" arrivalLane="52i_0" arrivalPos="10.00" arrivalSpeed="17.01" duration="141.00" routeLength="596.93" waitingTime="93.00" waitingCount="1" stopTime="0.00" timeLoss="106.74" rerouteNo="0" devices="tripinfo_8" vType="DEFAULT_VEHTYPE" speedFactor="0.94" vaporized=""/>
    <tripinfo id="15" depart="16.00" departLane="53o_0" departPos="5.10" departSpeed="0.00" departDelay="2.65" arrival="148.00" arrivalLane="54i_2" arrivalPos="10.00" arrivalSpeed="17.19" duration="132.00" routeLength="615.10" waitingTime="84.00" waitingCount="1" stopTime="0.00" timeLoss="97.56" rerouteNo="0" devices="tripinfo_15" vType="DEFAULT_VEHTYPE" speedFactor="0.93" vaporized=""/>
    <tripinfo id="18" depart="22.00" departLane="53o_0" departPos="5.10" departSpeed="0.00" departDelay="5.98" arrival="148.00" arrivalLane="54i_1" arrivalPos="10.00" arrivalSpeed="17.94" duration="126.00" routeLength="615.10" waitingTime="76.00" waitingCount="1" stopTime="0.00" timeLoss="91.31" rerouteNo="0" devices="tripinfo_18" vType="DEFAULT_VEHTYPE" speedFactor="0.94" vaporized=""/>
    <tripinfo id="10" depart="10.00" departLane="53o_0" departPos="5.10" departSpeed="0.00" departDelay="1.10" arrival="149.00" arrivalLane="52i_0" arrivalPos="10.00" arrivalSpeed="19.62" duration="139.00" routeLength="596.93" waitingTime="93.00" waitingCount="1" stopTime="0.00" timeLoss="110.25" rerouteNo="0" devices="tripinfo_10" vType="DEFAULT_VEHTYPE" speedFactor="1.09" vaporized=""/>
    <tripinfo id="33" depart="34.00" departLane="53o_0" departPos="5.10" departSpeed="0.00" departDelay="4.63" arrival="149.00" arrivalLane="54i_1" arrivalPos="10.00" arrivalSpeed="19.08" duration="115.00" routeLength="615.10" waitingTime="68.00" waitingCount="1" stopTime="0.00" timeLoss="88.00" rerouteNo="0" devices="tripinfo_33" vType="DEFAULT_VEHTYPE" speedFactor="1.17" vaporized=""/>
    <tripinfo id="20" depart="25.00" departLane="53o_0" departPos="5.10" departSpeed="0.00" departDelay="7.20" arrival="150.00" arrivalLane="54i_2" arrivalPos="10.00" arrivalSpeed="19.32" duration="125.00" routeLength="615.10" waitingTime="77.00" waitingCount="1" stopTime="0.00" timeLoss="93.10" rerouteNo="0" devices="tripinfo_20" vType="DEFAULT_VEHTYPE" speedFactor="1.02" vaporized=""/>
    <tripinfo id="36" depart="40.00" departLane="53o_0" departPos="5.10" departSpeed="0.00" departDelay="7.96" arrival="151.00" arrivalLane="54i_1" arrivalPos="10.00" arrivalSpeed="18.65" duration="111.00" routeLength="615.10" waitingTime="59.00" waitingCount="1" stopTime="0.00" timeLoss="78.11" rerouteNo="0" devices="tripinfo_36" vType="DEFAULT_VEHTYPE" speedFactor="0.97" vaporized=""/>
    <tripinfo id="16" depart="19.00" departLane="53o_0" departPos="5.10" departSpeed="0.00" departDelay="4.76" arrival="154.00" arrivalLane="52i_0" arrivalPos="10.00" arrivalSpeed="16.61" duration="135.00" routeLength="596.93" waitingTime="85.00" waitingCount="1" stopTime="0.00" timeLoss="98.88" rerouteNo="0" devices="tripinfo_16" vType="DEFAULT_VEHTYPE" speedFactor="0.88" vaporized=""/>
    <tripinfo id="39" depart="43.00" departLane="53o_0" departPos="5.10" departSpeed="0.00" departDelay="8.29" arrival="154.00" arrivalLane="54i_1" arrivalPos="10.00" arrivalSpeed="16.23" duration="111.00" routeLength="615.10" waitingTime="57.00" waitingCount="2" stopTime="0.00" timeLoss="75.03" rerouteNo="0" devices="tripinfo_39" vType="DEFAULT_VEHTYPE" speedFactor="0.90" vaporized=""/>
    <tripinfo id="43" depart="49.00" departLane="53o_0" departPos="5.10" departSpeed="0.00" departDelay="10.73" arrival="155.00" arrivalLane="54i_1" arrivalPos="10.00" arrivalSpeed="18.87" duration="106.00" routeLength="615.10" waitingTime="55.00" waitingCount="1" stopTime="0.00" timeLoss="75.19" rerouteNo="0" devices="tripinfo_43" vType="DEFAULT_VEHTYPE" speedFactor="1.04" vaporized=""/>
    <tripinfo id="24" depart="28.00" departLane="53o_0" departPos="5.10" departSpeed="0.00" departDelay="6.64" arrival="156.00" arrivalLane="51i_0" arrivalPos="10.00" arrivalSpeed="15.21" duration="128.00" routeLength="617.75" waitingTime="73.00" waitingCount="1" stopTime="0.00" timeLoss="88.18" rerouteNo="0" devices="tripinfo_24" vType="DEFAULT_VEHTYPE" speedFactor="0.83" vaporized=""/>
    <tripinfo id="34" depart="37.00" departLane="53o_0" departPos="5.10" departSpeed="0.00" departDelay="6.74" arrival="156.00" arrivalLane="52i_0" arrivalPos="10.00" arrivalSpeed="18.07" duration="119.00" routeLength="596.93" waitingTime="67.00" waitingCount="1" stopTime="0.00" timeLoss="86.53" rerouteNo="0" devices="tripinfo_34" vType="DEFAULT_VEHTYPE" speedFactor="0.99" vaporized=""/>
    <tripinfo id="45" depart="52.00" departLane="53o_0" departPos="5.10" departSpeed="0.00" departDelay="11.95" arrival="157.00" arrivalLane="52i_0" arrivalPos="10.00" arrivalSpeed="20.75" duration="105.00" routeLength="596.93" waitingTime="54.00" waitingCount="1" stopTime="0.00" timeLoss="75.56" rerouteNo="0" devices="tripinfo_45" vType="DEFAULT_VEHTYPE" speedFactor="1.09" vaporized=""/>
    <tripinfo id="56" depart="64.00" departLane="53o_0" departPos="5.10" departSpeed="0.00" departDelay="14.16" arrival="157.00" arrivalLane="54i_1" arrivalPos="10.00" arrivalSpeed="16.27" duration="93.00" routeLength="615.10" waitingTime="44.00" waitingCount="1" stopTime="0.00" timeLoss="57.33" rerouteNo="0" devices="tripinfo_56" vType="DEFAULT_VEHTYPE" speedFactor="0.90" vaporized=""/>
    <tripinfo id="26" depart="31.00" departLane="53o_0" departPos="5.10" departSpeed="0.00" departDelay="7.86" arrival="158.00" arrivalLane="51i_0" arrivalPos="10.00" arrivalSpeed="16.94" duration="127.00" routeLength="617.75" waitingTime="73.00" waitingCount="1" stopTime="0.00" timeLoss="90.87" rerouteNo="0" devices="tripinfo_26" vType="DEFAULT_VEHTYPE" speedFactor="0.92" vaporized=""/>
    <tripinfo id="41" depart="46.00" departLane="53o_0" departPos="5.10" departSpeed="0.00" departDelay="9.51" arrival="159.00" arrivalLane="51i_1" arrivalPos="10.00" arrivalSpeed="17.51" duration="113.00" routeLength="617.75" waitingTime="59.00" waitingCount="1" stopTime="0.00" timeLoss="78.34" rerouteNo="0" devices="tripinfo_41" vType="DEFAULT_VEHTYPE" speedFactor="0.96" vaporized=""/>
    <tripinfo id="83" depart="73.00" departLane="53o_0" departPos="5.10" departSpeed="0.00" departDelay="-0.87" arrival="159.00" arrivalLane="54i_1" arrivalPos="10.00" arrivalSpeed="18.69" duration="86.00" routeLength="615.10" waitingTime="33.00" waitingCount="1" stopTime="0.00" timeLoss="52.34" rerouteNo="0" devices="tripinfo_83" vType="DEFAULT_VEHTYPE" speedFactor="0.97" vaporized=""/>
    <tripinfo id="120" depart="108.00" departLane="53o_0" departPos="5.10" departSpeed="0.00" departDelay="1.20" arrival="160.00" arrivalLane="54i_1" arrivalPos="10.00" arrivalSpeed="18.07" duration="52.00" routeLength="615.10" waitingTime="1.00" waitingCount="1" stopTime="0.00" timeLoss="18.08" rerouteNo="0" devices="tripinfo_120" vType="DEFAULT_VEHTYPE" speedFactor="0.94" vaporized=""/>
    <tripinfo id="48" depart="55.00" departLane="53o_0" departPos="5.10" departSpeed="0.00" departDelay="12.28" arrival="161.00" arrivalLane="54i_2" arrivalPos="10.00" arrivalSpeed="11.75" duration="106.00" routeLength="615.10" waitingTime="53.00" waitingCount="1" stopTime="0.00" timeLoss="69.56" rerouteNo="0" devices="tripinfo_48" vType="DEFAULT_VEHTYPE" speedFactor="0.88" vaporized=""/>
    <tripinfo id="49" depart="58.00" departLane="53o_0" departPos="5.10" departSpeed="0.00" departDelay="14.39" arrival="162.00" arrivalLane="52i_0" arrivalPos="10.00" arrivalSpeed="16.31" duration="104.00" routeLength="596.93" waitingTime="49.00" waitingCount="1" stopTime="0.00" timeLoss="66.52" rerouteNo="0" devices="tripinfo_49" vType="DEFAULT_VEHTYPE" speedFactor="0.85" vaporized=""/>
    <tripinfo id="128" depart="117.00" departLane="53o_0" departPos="5.10" departSpeed="0.00" departDelay="3.08" arrival="162.00" arrivalLane="54i_1" arrivalPos="10.00" arrivalSpeed="18.79" duration="45.00" routeLength="615.10" waitingTime="0.00" waitingCount="0" stopTime="0.00" timeLoss="16.24" rerouteNo="0" devices="tripinfo_128" vType="DEFAULT_VEHTYPE" speedFactor="1.12" vaporized=""/>
    <tripinfo id="79" depart="70.00" departLane="53o_0" departPos="5.10" departSpeed="0.00" departDelay="-0.31" arrival="164.00" arrivalLane="52i_0" arrivalPos="10.00" arrivalSpeed="18.62" duration="94.00" routeLength="596.93" waitingTime="40.00" waitingCount="1" stopTime="0.00" timeLoss="64.66" rerouteNo="0" devices="tripinfo_79" vType="DEFAULT_VEHTYPE" speedFactor="1.09" vaporized=""/>
    <tripinfo id="130" depart="120.00" departLane="53o_0" departPos="5.10" departSpeed="0.00" departDelay="4.30" arrival="164.00" arrivalLane="54i_1" arrivalPos="10.00" arrivalSpeed="19.56" duration="44.00" routeLength="615.10" waitingTime="0.00" waitingCount="0" stopTime="0.00" timeLoss="12.41" rerouteNo="0" devices="tripinfo_130" vType="DEFAULT_VEHTYPE" speedFactor="1.03" vaporized=""/>
    <tripinfo id="50" depart="61.00" departLane="53o_0" departPos="5.10" departSpeed="0.00" departDelay="16.50" arrival="165.00" arrivalLane="51i_0" arrivalPos="10.00" arrivalSpeed="15.86" duration="104.00" routeLength="617.75" waitingTime="47.00" waitingCount="1" stopTime="0.00" timeLoss="65.40" rerouteNo="0" devices="tripinfo_50" vType="DEFAULT_VEHTYPE" speedFactor="0.85" vaporized=""/>
    <tripinfo id="86" depart="76.00" departLane="53o_0" departPos="5.10" departSpeed="0.00" departDelay="-0.54" arrival="165.00" arrivalLane="52i_0" arrivalPos="10.00" arrivalSpeed="18.59" duration="89.00" routeLength="596.93" waitingTime="35.00" waitingCount="1" stopTime="0.00" timeLoss="57.03" rerouteNo="0" devices="tripinfo_86" vType="DEFAULT_VEHTYPE" speedFactor="1.00" vaporized=""/>
    <tripinfo id="63" depart="67.00" departLane="53o_0" departPos="5.10" departSpeed="0.00" departDelay="10.93" arrival="167.00" arrivalLane="51i_0" arrivalPos="10.00" arrivalSpeed="18.55" duration="100.00" routeLength="617.75" waitingTime="43.00" waitingCount="1" stopTime="0.00" timeLoss="66.16" rerouteNo="0" devices="tripinfo_63" vType="DEFAULT_VEHTYPE" speedFactor="0.99" vaporized=""/>
    <tripinfo id="101" depart="89.00" departLane="53o_0" departPos="5.10" departSpeed="0.00" departDelay="-0.89" arrival="167.00" arrivalLane="52i_0" arrivalPos="10.00" arrivalSpeed="17.94" duration="78.00" routeLength="596.93" waitingTime="23.00" waitingCount="1" stopTime="0.00" timeLoss="45.03" rerouteNo="0" devices="tripinfo_101" vType="DEFAULT_VEHTYPE" speedFactor="0.96" vaporized=""/>
    <tripinfo id="93" depart="82.00" departLane="53o_0" departPos="5.10" departSpeed="0.00" departDelay="-0.77" arrival="169.00" arrivalLane="51i_0" arrivalPos="10.00" arrivalSpeed="17.19" duration="87.00" routeLength="617.75" waitingTime="31.00" waitingCount="1" stopTime="0.00" timeLoss="50.85" rerouteNo="0" devices="tripinfo_93" vType="DEFAULT_VEHTYPE" speedFactor="0.92" vaporized=""/>
    <tripinfo id="108" depart="96.00" departLane="53o_0" departPos="5.10" departSpeed="0.00" departDelay="-0.12" arrival="170.00" arrivalLane="51i_0" arrivalPos="10.00" arrivalSpeed="19.15" duration="74.00" routeLength="617.75" waitingTime="18.00" waitingCount="1" stopTime="0.00" timeLoss="43.14" rerouteNo="0" devices="tripinfo_108" vType="DEFAULT_VEHTYPE" speedFactor="1.06" vaporized=""/>
    <tripinfo id="109" depart="99.00" departLane="53o_0" departPos="5.10" departSpeed="0.00" departDelay="1.99" arrival="172.00" arrivalLane="51i_0" arrivalPos="10.00" arrivalSpeed="18.32" duration="73.00" routeLength="617.75" waitingTime="17.00" waitingCount="1" stopTime="0.00" timeLoss="38.43" rerouteNo="0" devices="tripinfo_109" vType="DEFAULT_VEHTYPE" speedFactor="0.96" vaporized=""/>
    <tripinfo id="111" depart="102.00" departLane="53o_0" departPos="5.10" departSpeed="0.00" departDelay="3.21" arrival="172.00" arrivalLane="52i_0" arrivalPos="10.00" arrivalSpeed="16.05" duration="70.00" routeLength="596.93" waitingTime="11.00" waitingCount="1" stopTime="0.00" timeLoss="33.59" rerouteNo="0" devices="tripinfo_111" vType="DEFAULT_VEHTYPE" speedFactor="0.87" vaporized=""/>
    <tripinfo id="125" depart="111.00" departLane="53o_0" departPos="5.10" departSpeed="0.00" departDelay="-0.25" arrival="173.00" arrivalLane="52i_0" arrivalPos="10.00" arrivalSpeed="18.91" duration="62.00" routeLength="596.93" waitingTime="5.00" waitingCount="1" stopTime="0.00" timeLoss="34.25" rerouteNo="0" devices="tripinfo_125" vType="DEFAULT_VEHTYPE" speedFactor="1.15" vaporized=""/>
    <tripinfo id="112" depart="105.00" departLane="53o_0" departPos="5.10" departSpeed="0.00" departDelay="5.32" arrival="174.00" arrivalLane="51i_0" arrivalPos="10.00" arrivalSpeed="20.28" duration="69.00" routeLength="617.75" waitingTime="13.00" waitingCount="1" stopTime="0.00" timeLoss="38.54" rerouteNo="0" devices="tripinfo_112" vType="DEFAULT_VEHTYPE" speedFactor="1.10" vaporized=""/>
    <tripinfo id="13" depart="11.00" departLane="51o_0" departPos="5.10" departSpeed="0.00" departDelay="-0.57" arrival="179.00" arrivalLane="53i_0" arrivalPos="10.00" arrivalSpeed="21.17" duration="168.00" routeLength="596.93" waitingTime="126.00" waitingCount="1" stopTime="0.00" timeLoss="138.96" rerouteNo="0" devices="tripinfo_13" vType="DEFAULT_VEHTYPE" speedFactor="1.12" vaporized=""/>
    <tripinfo id="19" depart="16.00" departLane="51o_0" departPos="5.10" departSpeed="0.00" departDelay="-0.91" arrival="180.00" arrivalLane="53i_0" arrivalPos="10.00" arrivalSpeed="21.97" duration="164.00" routeLength="596.93" waitingTime="122.00" waitingCount="1" stopTime="0.00" timeLoss="136.13" rerouteNo="0" devices="tripinfo_19" vType="DEFAULT_VEHTYPE" speedFactor="1.16" vaporized=""/>
    <tripinfo id="28" depart="26.00" departLane="51o_0" departPos="5.10" departSpeed="0.00" departDelay="1.08" arrival="181.00" arrivalLane="52i_2" arrivalPos="10.00" arrivalSpeed="21.19" duration="155.00" routeLength="615.10" waitingTime="112.00" waitingCount="1" stopTime="0.00" timeLoss="126.46" rerouteNo="0" devices="tripinfo_28" vType="DEFAULT_VEHTYPE" speedFactor="1.13" vaporized=""/>
    <tripinfo id="23" depart="20.00" departLane="51o_0" departPos="5.10" departSpeed="0.00" departDelay="-0.47" arrival="182.00" arrivalLane="52i_1" arrivalPos="10.00" arrivalSpeed="17.25" duration="162.00" routeLength="615.10" waitingTime="115.00" waitingCount="1" stopTime="0.00" timeLoss="125.52" rerouteNo="0" devices="tripinfo_23" vType="DEFAULT_VEHTYPE" speedFactor="0.89" vaporized=""/>
    <tripinfo id="9" depart="8.00" departLane="51o_0" departPos="5.10" departSpeed="0.00" departDelay="-0.01" arrival="183.00" arrivalLane="54i_0" arrivalPos="10.00" arrivalSpeed="15.89" duration="175.00" routeLength="617.75" waitingTime="124.00" waitingCount="1" stopTime="0.00" timeLoss="136.25" rerouteNo="0" devices="tripinfo_9" vType="DEFAULT_VEHTYPE" speedFactor="0.86" vaporized=""/>
    <tripinfo id="25" depart="23.00" departLane="51o_0" departPos="5.10" departSpeed="0.00" departDelay="0.75" arrival="184.00" arrivalLane="52i_1" arrivalPos="10.00" arrivalSpeed="16.89" duration="161.00" routeLength="615.10" waitingTime="111.00" waitingCount="1" stopTime="0.00" timeLoss="123.83" rerouteNo="0" devices="tripinfo_25" vType="DEFAULT_VEHTYPE" speedFactor="0.87" vaporized=""/>
    <tripinfo id="35" depart="31.00" departLane="51o_0" departPos="5.10" departSpeed="0.00" departDelay="-0.15" arrival="184.00" arrivalLane="52i_2" arrivalPos="10.00" arrivalSpeed="19.33" duration="153.00" routeLength="615.10" waitingTime="108.00" waitingCount="1" stopTime="0.00" timeLoss="121.06" rerouteNo="0" devices="tripinfo_35" vType="DEFAULT_VEHTYPE" speedFactor="1.02" vaporized=""/>