<?xml version="1.0" encoding="UTF-8"?>

<!-- generated on Sat Nov  9 02:09:57 2019 by Eclipse SUMO Version 1.2.0
<configuration xmlns:xsi="http://www.w3.org/2001/XMLSchema-instance" xsi:noNamespaceSchemaLocation="http://sumo.dlr.de/xsd/sumoConfiguration.xsd">

    <input>
        <net-file value="simulation_files/sumocfgs/../networks/isolated_3_lanes_4_stages.net.xml"/>
        <route-files value="simulation_files/sumocfgs/../routes/isolated_3_lanes_80p.rou.xml"/>
    </input>

    <output>
        <tripinfo-output value="./output/exp21_rf_80p/throughput_pwtl__7_tripinfo_isolated.xml"/>
    </output>

    <time>
        <begin value="0"/>
        <step-length value="1"/>
    </time>

    <report>
        <verbose value="true"/>
        <no-step-log value="true"/>
    </report>

    <gui_only>
        <tracker-interval value="1"/>
    </gui_only>

</configuration>
-->

<tripinfos xmlns:xsi="http://www.w3.org/2001/XMLSchema-instance" xsi:noNamespaceSchemaLocation="http://sumo.dlr.de/xsd/tripinfo_file.xsd">
    <tripinfo id="1" depart="0.00" departLane="54o_0" departPos="5.10" departSpeed="0.00" departDelay="-0.89" arrival="40.00" arrivalLane="53i_0" arrivalPos="10.00" arrivalSpeed="17.63" duration="40.00" routeLength="615.10" waitingTime="0.00" waitingCount="0" stopTime="0.00" timeLoss="5.36" rerouteNo="0" devices="tripinfo_1" vType="DEFAULT_VEHTYPE" speedFactor="0.94" vaporized=""/>
    <tripinfo id="4" depart="3.00" departLane="54o_0" departPos="5.10" departSpeed="0.00" departDelay="-0.56" arrival="41.00" arrivalLane="53i_0" arrivalPos="10.00" arrivalSpeed="19.46" duration="38.00" routeLength="615.10" waitingTime="0.00" waitingCount="0" stopTime="0.00" timeLoss="6.91" rerouteNo="0" devices="tripinfo_4" vType="DEFAULT_VEHTYPE" speedFactor="1.03" vaporized=""/>
    <tripinfo id="3" depart="2.00" departLane="52o_0" departPos="5.10" departSpeed="0.00" departDelay="-0.67" arrival="46.00" arrivalLane="51i_0" arrivalPos="10.00" arrivalSpeed="20.37" duration="44.00" routeLength="615.10" waitingTime="2.00" waitingCount="1" stopTime="0.00" timeLoss="14.48" rerouteNo="0" devices="tripinfo_3" vType="DEFAULT_VEHTYPE" speedFactor="1.08" vaporized=""/>
    <tripinfo id="14" depart="12.00" departLane="52o_0" departPos="5.10" departSpeed="0.00" departDelay="-0.46" arrival="50.00" arrivalLane="51i_0" arrivalPos="10.00" arrivalSpeed="18.25" duration="38.00" routeLength="615.10" waitingTime="0.00" waitingCount="0" stopTime="0.00" timeLoss="5.20" rerouteNo="0" devices="tripinfo_14" vType="DEFAULT_VEHTYPE" speedFactor="0.99" vaporized=""/>
    <tripinfo id="21" depart="18.00" departLane="52o_0" departPos="5.10" departSpeed="0.00" departDelay="-0.69" arrival="55.00" arrivalLane="51i_0" arrivalPos="10.00" arrivalSpeed="19.41" duration="37.00" routeLength="615.10" waitingTime="0.00" waitingCount="0" stopTime="0.00" timeLoss="4.71" rerouteNo="0" devices="tripinfo_21" vType="DEFAULT_VEHTYPE" speedFactor="1.01" vaporized=""/>
    <tripinfo id="22" depart="21.00" departLane="52o_0" departPos="5.10" departSpeed="0.00" departDelay="1.42" arrival="60.00" arrivalLane="51i_0" arrivalPos="10.00" arrivalSpeed="17.97" duration="39.00" routeLength="615.10" waitingTime="0.00" waitingCount="0" stopTime="0.00" timeLoss="5.67" rerouteNo="0" devices="tripinfo_22" vType="DEFAULT_VEHTYPE" speedFactor="0.98" vaporized=""/>
    <tripinfo id="30" depart="26.00" departLane="52o_0" departPos="5.10" departSpeed="0.00" departDelay="-0.70" arrival="63.00" arrivalLane="53i_0" arrivalPos="10.00" arrivalSpeed="21.78" duration="37.00" routeLength="617.75" waitingTime="0.00" waitingCount="0" stopTime="0.00" timeLoss="8.70" rerouteNo="0" devices="tripinfo_30" vType="DEFAULT_VEHTYPE" speedFactor="1.18" vaporized=""/>
    <tripinfo id="31" depart="29.00" departLane="52o_0" departPos="5.10" departSpeed="0.00" departDelay="1.41" arrival="66.00" arrivalLane="54i_0" arrivalPos="10.00" arrivalSpeed="21.31" duration="37.00" routeLength="596.93" waitingTime="0.00" waitingCount="0" stopTime="0.00" timeLoss="9.47" rerouteNo="0" devices="tripinfo_31" vType="DEFAULT_VEHTYPE" speedFactor="1.15" vaporized=""/>
    <tripinfo id="38" depart="33.00" departLane="52o_0" departPos="5.10" departSpeed="0.00" departDelay="-0.82" arrival="72.00" arrivalLane="54i_0" arrivalPos="10.00" arrivalSpeed="20.93" duration="39.00" routeLength="596.93" waitingTime="0.00" waitingCount="0" stopTime="0.00" timeLoss="9.64" rerouteNo="0" devices="tripinfo_38" vType="DEFAULT_VEHTYPE" speedFactor="1.10" vaporized=""/>
    <tripinfo id="40" depart="36.00" departLane="52o_0" departPos="5.10" departSpeed="0.00" departDelay="0.40" arrival="77.00" arrivalLane="54i_0" arrivalPos="10.00" arrivalSpeed="19.04" duration="41.00" routeLength="596.93" waitingTime="0.00" waitingCount="0" stopTime="0.00" timeLoss="9.88" rerouteNo="0" devices="tripinfo_40" vType="DEFAULT_VEHTYPE" speedFactor="1.03" vaporized=""/>
    <tripinfo id="42" depart="39.00" departLane="52o_0" departPos="5.10" departSpeed="0.00" departDelay="1.62" arrival="78.00" arrivalLane="53i_0" arrivalPos="10.00" arrivalSpeed="20.48" duration="39.00" routeLength="617.75" waitingTime="0.00" waitingCount="0" stopTime="0.00" timeLoss="7.78" rerouteNo="0" devices="tripinfo_42" vType="DEFAULT_VEHTYPE" speedFactor="1.09" vaporized=""/>
    <tripinfo id="46" depart="42.00" departLane="52o_0" departPos="5.10" departSpeed="0.00" departDelay="1.06" arrival="80.00" arrivalLane="51i_0" arrivalPos="10.00" arrivalSpeed="19.04" duration="38.00" routeLength="615.10" waitingTime="0.00" waitingCount="0" stopTime="0.00" timeLoss="5.80" rerouteNo="0" devices="tripinfo_46" vType="DEFAULT_VEHTYPE" speedFactor="1.00" vaporized=""/>
    <tripinfo id="52" depart="48.00" departLane="52o_0" departPos="5.10" departSpeed="0.00" departDelay="1.72" arrival="85.00" arrivalLane="51i_0" arrivalPos="10.00" arrivalSpeed="19.38" duration="37.00" routeLength="615.10" waitingTime="0.00" waitingCount="0" stopTime="0.00" timeLoss="5.33" rerouteNo="0" devices="tripinfo_52" vType="DEFAULT_VEHTYPE" speedFactor="1.02" vaporized=""/>
    <tripinfo id="58" depart="51.00" departLane="52o_0" departPos="5.10" departSpeed="0.00" departDelay="-0.62" arrival="88.00" arrivalLane="51i_0" arrivalPos="10.00" arrivalSpeed="19.71" duration="37.00" routeLength="615.10" waitingTime="0.00" waitingCount="0" stopTime="0.00" timeLoss="5.88" rerouteNo="0" devices="tripinfo_58" vType="DEFAULT_VEHTYPE" speedFactor="1.02" vaporized=""/>
    <tripinfo id="47" depart="45.00" departLane="52o_0" departPos="5.10" departSpeed="0.00" departDelay="3.17" arrival="89.00" arrivalLane="53i_0" arrivalPos="10.00" arrivalSpeed="17.45" duration="44.00" routeLength="617.75" waitingTime="0.00" waitingCount="0" stopTime="0.00" timeLoss="6.37" rerouteNo="0" devices="tripinfo_47" vType="DEFAULT_VEHTYPE" speedFactor="0.90" vaporized=""/>
    <tripinfo id="59" depart="54.00" departLane="52o_0" departPos="5.10" departSpeed="0.00" departDelay="1.49" arrival="96.00" arrivalLane="53i_0" arrivalPos="10.00" arrivalSpeed="17.89" duration="42.00" routeLength="617.75" waitingTime="0.00" waitingCount="0" stopTime="0.00" timeLoss="7.51" rerouteNo="0" devices="tripinfo_59" vType="DEFAULT_VEHTYPE" speedFactor="0.97" vaporized=""/>
    <tripinfo id="61" depart="57.00" departLane="52o_0" departPos="5.10" departSpeed="0.00" departDelay="2.71" arrival="98.00" arrivalLane="53i_0" arrivalPos="10.00" arrivalSpeed="20.58" duration="41.00" routeLength="617.75" waitingTime="0.00" waitingCount="0" stopTime="0.00" timeLoss="10.77" rerouteNo="0" devices="tripinfo_61" vType="DEFAULT_VEHTYPE" speedFactor="1.12" vaporized=""/>
    <tripinfo id="0" depart="0.00" departLane="53o_0" departPos="5.10" departSpeed="0.00" departDelay="0.00" arrival="102.00" arrivalLane="54i_0" arrivalPos="10.00" arrivalSpeed="19.62" duration="102.00" routeLength="615.10" waitingTime="60.00" waitingCount="1" stopTime="0.00" timeLoss="71.99" rerouteNo="0" devices="tripinfo_0" vType="DEFAULT_VEHTYPE" speedFactor="1.06" vaporized=""/>
    <tripinfo id="2" depart="3.00" departLane="53o_0" departPos="5.10" departSpeed="0.00" departDelay="1.22" arrival="103.00" arrivalLane="54i_1" arrivalPos="10.00" arrivalSpeed="18.43" duration="100.00" routeLength="615.10" waitingTime="55.00" waitingCount="1" stopTime="0.00" timeLoss="68.45" rerouteNo="0" devices="tripinfo_2" vType="DEFAULT_VEHTYPE" speedFactor="1.01" vaporized=""/>
    <tripinfo id="11" depart="13.00" departLane="53o_0" departPos="5.10" departSpeed="0.00" departDelay="3.21" arrival="103.00" arrivalLane="51i_0" arrivalPos="10.00" arrivalSpeed="19.81" duration="90.00" routeLength="617.75" waitingTime="46.00" waitingCount="1" stopTime="0.00" timeLoss="58.07" rerouteNo="0" devices="tripinfo_11" vType="DEFAULT_VEHTYPE" speedFactor="1.03" vaporized=""/>
    <tripinfo id="8" depart="7.00" departLane="53o_0" departPos="5.10" departSpeed="0.00" departDelay="-0.12" arrival="106.00" arrivalLane="52i_0" arrivalPos="10.00" arrivalSpeed="17.20" duration="99.00" routeLength="596.93" waitingTime="51.00" waitingCount="1" stopTime="0.00" timeLoss="65.06" rerouteNo="0" devices="tripinfo_8" vType="DEFAULT_VEHTYPE" speedFactor="0.94" vaporized=""/>
    <tripinfo id="15" depart="16.00" departLane="53o_0" departPos="5.10" departSpeed="0.00" departDelay="2.65" arrival="106.00" arrivalLane="54i_2" arrivalPos="10.00" arrivalSpeed="16.99" duration="90.00" routeLength="615.10" waitingTime="42.00" waitingCount="1" stopTime="0.00" timeLoss="55.60" rerouteNo="0" devices="tripinfo_15" vType="DEFAULT_VEHTYPE" speedFactor="0.93" vaporized=""/>
    <tripinfo id="18" depart="22.00" departLane="53o_0" departPos="5.10" departSpeed="0.00" departDelay="5.98" arrival="106.00" arrivalLane="54i_1" arrivalPos="10.00" arrivalSpeed="17.49" duration="84.00" routeLength="615.10" waitingTime="34.00" waitingCount="1" stopTime="0.00" timeLoss="49.65" rerouteNo="0" devices="tripinfo_18" vType="DEFAULT_VEHTYPE" speedFactor="0.94" vaporized=""/>
    <tripinfo id="10" depart="10.00" departLane="53o_0" departPos="5.10" departSpeed="0.00" departDelay="1.10" arrival="108.00" arrivalLane="52i_0" arrivalPos="10.00" arrivalSpeed="19.98" duration="98.00" routeLength="596.93" waitingTime="51.00" waitingCount="1" stopTime="0.00" timeLoss="68.72" rerouteNo="0" devices="tripinfo_10" vType="DEFAULT_VEHTYPE" speedFactor="1.09" vaporized=""/>
    <tripinfo id="20" depart="25.00" departLane="53o_0" departPos="5.10" departSpeed="0.00" departDelay="7.20" arrival="108.00" arrivalLane="54i_2" arrivalPos="10.00" arrivalSpeed="19.32" duration="83.00" routeLength="615.10" waitingTime="35.00" waitingCount="1" stopTime="0.00" timeLoss="51.12" rerouteNo="0" devices="tripinfo_20" vType="DEFAULT_VEHTYPE" speedFactor="1.02" vaporized=""/>
    <tripinfo id="33" depart="34.00" departLane="53o_0" departPos="5.10" departSpeed="0.00" departDelay="4.63" arrival="108.00" arrivalLane="54i_1" arrivalPos="10.00" arrivalSpeed="21.43" duration="74.00" routeLength="615.10" waitingTime="26.00" waitingCount="1" stopTime="0.00" timeLoss="46.11" rerouteNo="0" devices="tripinfo_33" vType="DEFAULT_VEHTYPE" speedFactor="1.17" vaporized=""/>
    <tripinfo id="36" depart="40.00" departLane="53o_0" departPos="5.10" departSpeed="0.00" departDelay="7.96" arrival="109.00" arrivalLane="54i_1" arrivalPos="10.00" arrivalSpeed="18.05" duration="69.00" routeLength="615.10" waitingTime="17.00" waitingCount="1" stopTime="0.00" timeLoss="36.16" rerouteNo="0" devices="tripinfo_36" vType="DEFAULT_VEHTYPE" speedFactor="0.97" vaporized=""/>
    <tripinfo id="39" depart="43.00" departLane="53o_0" departPos="5.10" departSpeed="0.00" departDelay="8.29" arrival="112.00" arrivalLane="54i_1" arrivalPos="10.00" arrivalSpeed="16.23" duration="69.00" routeLength="615.10" waitingTime="15.00" waitingCount="2" stopTime="0.00" timeLoss="33.30" rerouteNo="0" devices="tripinfo_39" vType="DEFAULT_VEHTYPE" speedFactor="0.90" vaporized=""/>
    <tripinfo id="16" depart="19.00" departLane="53o_0" departPos="5.10" departSpeed="0.00" departDelay="4.76" arrival="113.00" arrivalLane="52i_0" arrivalPos="10.00" arrivalSpeed="15.81" duration="94.00" routeLength="596.93" waitingTime="43.00" waitingCount="1" stopTime="0.00" timeLoss="57.11" rerouteNo="0" devices="tripinfo_16" vType="DEFAULT_VEHTYPE" speedFactor="0.88" vaporized=""/>
    <tripinfo id="43" depart="49.00" departLane="53o_0" departPos="5.10" departSpeed="0.00" departDelay="10.73" arrival="113.00" arrivalLane="54i_1" arrivalPos="10.00" arrivalSpeed="18.72" duration="64.00" routeLength="615.10" waitingTime="13.00" waitingCount="1" stopTime="0.00" timeLoss="33.42" rerouteNo="0" devices="tripinfo_43" vType="DEFAULT_VEHTYPE" speedFactor="1.04" vaporized=""/>
    <tripinfo id="24" depart="28.00" departLane="53o_0" departPos="5.10" departSpeed="0.00" departDelay="6.64" arrival="114.00" arrivalLane="51i_0" arrivalPos="10.00" arrivalSpeed="15.60" duration="86.00" routeLength="617.75" waitingTime="31.00" waitingCount="1" stopTime="0.00" timeLoss="45.63" rerouteNo="0" devices="tripinfo_24" vType="DEFAULT_VEHTYPE" speedFactor="0.83" vaporized=""/>
    <tripinfo id="34" depart="37.00" departLane="53o_0" departPos="5.10" departSpeed="0.00" departDelay="6.74" arrival="114.00" arrivalLane="52i_0" arrivalPos="10.00" arrivalSpeed="17.93" duration="77.00" routeLength="596.93" waitingTime="25.00" waitingCount="1" stopTime="0.00" timeLoss="44.89" rerouteNo="0" devices="tripinfo_34" vType="DEFAULT_VEHTYPE" speedFactor="0.99" vaporized=""/>
    <tripinfo id="26" depart="31.00" departLane="53o_0" departPos="5.10" departSpeed="0.00" departDelay="7.86" arrival="115.00" arrivalLane="51i_1" arrivalPos="10.00" arrivalSpeed="16.96" duration="84.00" routeLength="617.75" waitingTime="31.00" waitingCount="1" stopTime="0.00" timeLoss="47.54" rerouteNo="0" devices="tripinfo_26" vType="DEFAULT_VEHTYPE" speedFactor="0.92" vaporized=""/>
    <tripinfo id="41" depart="46.00" departLane="53o_0" departPos="5.10" departSpeed="0.00" departDelay="9.51" arrival="116.00" arrivalLane="51i_0" arrivalPos="10.00" arrivalSpeed="18.06" duration="70.00" routeLength="617.75" waitingTime="17.00" waitingCount="1" stopTime="0.00" timeLoss="35.47" rerouteNo="0" devices="tripinfo_41" vType="DEFAULT_VEHTYPE" speedFactor="0.96" vaporized=""/>
    <tripinfo id="45" depart="52.00" departLane="53o_0" departPos="5.10" departSpeed="0.00" departDelay="11.95" arrival="116.00" arrivalLane="52i_0" arrivalPos="10.00" arrivalSpeed="19.66" duration="64.00" routeLength="596.93" waitingTime="12.00" waitingCount="1" stopTime="0.00" timeLoss="34.58" rerouteNo="0" devices="tripinfo_45" vType="DEFAULT_VEHTYPE" speedFactor="1.09" vaporized=""/>
    <tripinfo id="56" depart="64.00" departLane="53o_0" departPos="5.10" departSpeed="0.00" departDelay="14.16" arrival="116.00" arrivalLane="54i_1" arrivalPos="10.00" arrivalSpeed="16.27" duration="52.00" routeLength="615.10" waitingTime="3.00" waitingCount="1" stopTime="0.00" timeLoss="15.98" rerouteNo="0" devices="tripinfo_56" vType="DEFAULT_VEHTYPE" speedFactor="0.90" vaporized=""/>
    <tripinfo id="48" depart="55.00" departLane="53o_0" departPos="5.10" departSpeed="0.00" departDelay="12.28" arrival="117.00" arrivalLane="54i_2" arrivalPos="10.00" arrivalSpeed="16.47" duration="62.00" routeLength="615.10" waitingTime="11.00" waitingCount="1" stopTime="0.00" timeLoss="25.90" rerouteNo="0" devices="tripinfo_48" vType="DEFAULT_VEHTYPE" speedFactor="0.88" vaporized=""/>
    <tripinfo id="83" depart="73.00" departLane="53o_0" departPos="5.10" departSpeed="0.00" departDelay="-0.87" arrival="119.00" arrivalLane="54i_1" arrivalPos="10.00" arrivalSpeed="18.69" duration="46.00" routeLength="615.10" waitingTime="0.00" waitingCount="0" stopTime="0.00" timeLoss="12.70" rerouteNo="0" devices="tripinfo_83" vType="DEFAULT_VEHTYPE" speedFactor="0.97" vaporized=""/>
    <tripinfo id="49" depart="58.00" departLane="53o_0" departPos="5.10" departSpeed="0.00" departDelay="14.39" arrival="121.00" arrivalLane="52i_0" arrivalPos="10.00" arrivalSpeed="16.48" duration="63.00" routeLength="596.93" waitingTime="7.00" waitingCount="1" stopTime="0.00" timeLoss="24.89" rerouteNo="0" devices="tripinfo_49" vType="DEFAULT_VEHTYPE" speedFactor="0.85" vaporized=""/>
    <tripinfo id="50" depart="61.00" departLane="53o_0" departPos="5.10" departSpeed="0.00" departDelay="16.50" arrival="122.00" arrivalLane="51i_0" arrivalPos="10.00" arrivalSpeed="15.38" duration="61.00" routeLength="617.75" waitingTime="5.00" waitingCount="1" stopTime="0.00" timeLoss="22.49" rerouteNo="0" devices="tripinfo_50" vType="DEFAULT_VEHTYPE" speedFactor="0.85" vaporized=""/>
    <tripinfo id="79" depart="70.00" departLane="53o_0" departPos="5.10" departSpeed="0.00" departDelay="-0.31" arrival="122.00" arrivalLane="52i_0" arrivalPos="10.00" arrivalSpeed="16.68" duration="52.00" routeLength="596.93" waitingTime="0.00" waitingCount="0" stopTime="0.00" timeLoss="22.54" rerouteNo="0" devices="tripinfo_79" vType="DEFAULT_VEHTYPE" speedFactor="1.09" vaporized=""/>
    <tripinfo id="63" depart="67.00" departLane="53o_0" departPos="5.10" departSpeed="0.00" departDelay="10.93" arrival="124.00" arrivalLane="51i_0" arrivalPos="10.00" arrivalSpeed="18.14" duration="57.00" routeLength="617.75" waitingTime="1.00" waitingCount="1" stopTime="0.00" timeLoss="23.11" rerouteNo="0" devices="tripinfo_63" vType="DEFAULT_VEHTYPE" speedFactor="0.99" vaporized=""/>
    <tripinfo id="86" depart="76.00" departLane="53o_0" departPos="5.10" departSpeed="0.00" departDelay="-0.54" arrival="124.00" arrivalLane="52i_0" arrivalPos="10.00" arrivalSpeed="19.16" duration="48.00" routeLength="596.93" waitingTime="0.00" waitingCount="0" stopTime="0.00" timeLoss="15.71" rerouteNo="0" devices="tripinfo_86" vType="DEFAULT_VEHTYPE" speedFactor="1.00" vaporized=""/>
    <tripinfo id="93" depart="82.00" departLane="53o_0" departPos="5.10" departSpeed="0.00" departDelay="-0.77" arrival="126.00" arrivalLane="51i_0" arrivalPos="10.00" arrivalSpeed="17.02" duration="44.00" routeLength="617.75" waitingTime="0.00" waitingCount="0" stopTime="0.00" timeLoss="7.75" rerouteNo="0" devices="tripinfo_93" vType="DEFAULT_VEHTYPE" speedFactor="0.92" vaporized=""/>
    <tripinfo id="101" depart="89.00" departLane="53o_0" departPos="5.10" departSpeed="0.00" departDelay="-0.89" arrival="131.00" arrivalLane="52i_0" arrivalPos="10.00" arrivalSpeed="18.46" duration="42.00" routeLength="596.93" waitingTime="0.00" waitingCount="0" stopTime="0.00" timeLoss="8.99" rerouteNo="0" devices="tripinfo_101" vType="DEFAULT_VEHTYPE" speedFactor="0.96" vaporized=""/>
    <tripinfo id="108" depart="96.00" departLane="53o_0" departPos="5.10" departSpeed="0.00" departDelay="-0.12" arrival="135.00" arrivalLane="51i_0" arrivalPos="10.00" arrivalSpeed="20.58" duration="39.00" routeLength="617.75" waitingTime="0.00" waitingCount="0" stopTime="0.00" timeLoss="7.82" rerouteNo="0" devices="tripinfo_108" vType="DEFAULT_VEHTYPE" speedFactor="1.06" vaporized=""/>
    <tripinfo id="109" depart="99.00" departLane="53o_0" departPos="5.10" departSpeed="0.00" departDelay="1.99" arrival="141.00" arrivalLane="51i_0" arrivalPos="10.00" arrivalSpeed="17.66" duration="42.00" routeLength="617.75" waitingTime="0.00" waitingCount="0" stopTime="0.00" timeLoss="7.21" rerouteNo="0" devices="tripinfo_109" vType="DEFAULT_VEHTYPE" speedFactor="0.96" vaporized=""/>
    <tripinfo id="112" depart="105.00" departLane="53o_0" departPos="5.10" departSpeed="0.00" departDelay="5.32" arrival="144.00" arrivalLane="51i_0" arrivalPos="10.00" arrivalSpeed="20.57" duration="39.00" routeLength="617.75" waitingTime="0.00" waitingCount="0" stopTime="0.00" timeLoss="8.72" rerouteNo="0" devices="tripinfo_112" vType="DEFAULT_VEHTYPE" speedFactor="1.10" vaporized=""/>
    <tripinfo id="111" depart="102.00" departLane="53o_0" departPos="5.10" departSpeed="0.00" departDelay="3.21" arrival="147.00" arrivalLane="52i_0" arrivalPos="10.00" arrivalSpeed="15.92" duration="45.00" routeLength="596.93" waitingTime="0.00" waitingCount="0" stopTime="0.00" timeLoss="8.00" rerouteNo="0" devices="tripinfo_111" vType="DEFAULT_VEHTYPE" speedFactor="0.87" vaporized=""/>
    <tripinfo id="120" depart="108.00" departLane="53o_0" departPos="5.10" departSpeed="0.00" departDelay="1.20" arrival="148.00" arrivalLane="54i_0" arrivalPos="10.00" arrivalSpeed="17.97" duration="40.00" routeLength="615.10" waitingTime="0.00" waitingCount="0" stopTime="0.00" timeLoss="5.60" rerouteNo="0" devices="tripinfo_120" vType="DEFAULT_VEHTYPE" speedFactor="0.94" vaporized=""/>
    <tripinfo id="125" depart="111.00" departLane="53o_0" departPos="5.10" departSpeed="0.00" departDelay="-0.25" arrival="149.00" arrivalLane="52i_0" arrivalPos="10.00" arrivalSpeed="21.70" duration="38.00" routeLength="596.93" waitingTime="0.00" waitingCount="0" stopTime="0.00" timeLoss="10.60" rerouteNo="0" devices="tripinfo_125" vType="DEFAULT_VEHTYPE" speedFactor="1.15" vaporized=""/>
    <tripinfo id="128" depart="117.00" departLane="53o_0" departPos="5.10" departSpeed="0.00" departDelay="3.08" arrival="152.00" arrivalLane="54i_1" arrivalPos="10.00" arrivalSpeed="21.68" duration="35.00" routeLength="615.10" waitingTime="0.00" waitingCount="0" stopTime="0.00" timeLoss="5.91" rerouteNo="0" devices="tripinfo_128" vType="DEFAULT_VEHTYPE" speedFactor="1.12" vaporized=""/>
    <tripinfo id="130" depart="120.00" departLane="53o_0" departPos="5.10" departSpeed="0.00" departDelay="4.30" arrival="157.00" arrivalLane="54i_1" arrivalPos="10.00" arrivalSpeed="19.56" duration="37.00" routeLength="615.10" waitingTime="0.00" waitingCount="0" stopTime="0.00" timeLoss="5.47" rerouteNo="0" devices="tripinfo_130" vType="DEFAULT_VEHTYPE" speedFactor="1.03" vaporized=""/>
    <tripinfo id="127" depart="114.00" departLane="53o_0" departPos="5.10" departSpeed="0.00" departDelay="0.97" arrival="161.00" arrivalLane="52i_0" arrivalPos="10.00" arrivalSpeed="15.15" duration="47.00" routeLength="596.93" waitingTime="0.00" waitingCount="0" stopTime="0.00" timeLoss="8.14" rerouteNo="0" devices="tripinfo_127" vType="DEFAULT_VEHTYPE" speedFactor="0.82" vaporized=""/>
    <tripinfo id="133" depart="123.00" departLane="53o_0" departPos="5.10" departSpeed="0.00" departDelay="4.63" arrival="163.00" arrivalLane="52i_0" arrivalPos="10.00" arrivalSpeed="19.22" duration="40.00" routeLength="596.93" waitingTime="0.00" waitingCount="0" stopTime="0.00" timeLoss="8.95" rerouteNo="0" devices="tripinfo_133" vType="DEFAULT_VEHTYPE" speedFactor="1.04" vaporized=""/>
    <tripinfo id="134" depart="126.00" departLane="53o_0" departPos="5.10" departSpeed="0.00" departDelay="6.74" arrival="165.00" arrivalLane="52i_0" arrivalPos="10.00" arrivalSpeed="22.83" duration="39.00" routeLength="596.93" waitingTime="0.00" waitingCount="0" stopTime="0.00" timeLoss="12.04" rerouteNo="0" devices="tripinfo_134" vType="DEFAULT_VEHTYPE" speedFactor="1.23" vaporized=""/>
    <tripinfo id="147" depart="130.00" departLane="53o_0" departPos="5.10" departSpeed="0.00" departDelay="-0.83" arrival="171.00" arrivalLane="52i_0" arrivalPos="10.00" arrivalSpeed="18.86" duration="41.00" routeLength="596.93" waitingTime="0.00" waitingCount="0" stopTime="0.00" timeLoss="8.44" rerouteNo="0" devices="tripinfo_147" vType="DEFAULT_VEHTYPE" speedFactor="1.00" vaporized=""/>
    <tripinfo id="148" depart="133.00" departLane="53o_0" departPos="5.10" departSpeed="0.00" departDelay="1.28" arrival="174.00" arrivalLane="51i_0" arrivalPos="10.00" arrivalSpeed="17.95" duration="41.00" routeLength="617.75" waitingTime="0.00" waitingCount="0" stopTime="0.00" timeLoss="6.66" rerouteNo="0" devices="tripinfo_148" vType="DEFAULT_VEHTYPE" speedFactor="0.97" vaporized=""/>
    <tripinfo id="13" depart="11.00" departLane="51o_0" departPos="5.10" departSpeed="0.00" departDelay="-0.57" arrival="178.00" arrivalLane="53i_0" arrivalPos="10.00" arrivalSpeed="20.97" duration="167.00" routeLength="596.93" waitingTime="126.00" waitingCount="1" stopTime="0.00" timeLoss="138.60" rerouteNo="0" devices="tripinfo_13" vType="DEFAULT_VEHTYPE" speedFactor="1.12" vaporized=""/>
    <tripinfo id="19" depart="16.00" departLane="51o_0" departPos="5.10" departSpeed="0.00" departDelay="-0.91" arrival="180.00" arrivalLane="53i_0" arrivalPos="10.00" arrivalSpeed="21.25" duration="164.00" routeLength="596.93" waitingTime="122.00" waitingCount="1" stopTime="0.00" timeLoss="136.23" rerouteNo="0" devices="tripinfo_19" vType="DEFAULT_VEHTYPE" speedFactor="1.16" vaporized=""/>
    <tripinfo id="28" depart="26.00" departLane="51o_0" departPos="5.10" departSpeed="0.00" departDelay="1.08" arrival="181.00" arrivalLane="52i_2" arrivalPos="10.00" arrivalSpeed="21.19" duration="155.00" routeLength="615.10" waitingTime="112.00" waitingCount="1" stopTime="0.00" timeLoss="126.47" rerouteNo="0" devices="tripinfo_28" vType="DEFAULT_VEHTYPE" speedFactor="1.13" vaporized=""/>
    <tripinfo id="23" depart="20.00" departLane="51o_0" departPos="5.10" departSpeed="0.00" departDelay="-0.47" arrival="182.00" arrivalLane="52i_1" arrivalPos="10.00" arrivalSpeed="17.25" duration="162.00" routeLength="615.10" waitingTime="115.00" waitingCount="1" stopTime="0.00" timeLoss="125.71" rerouteNo="0" devices="tripinfo_23" vType="DEFAULT_VEHTYPE" speedFactor="0.89" vaporized=""/>
    <tripinfo id="9" depart="8.00" departLane="51o_0" departPos="5.10" departSpeed="0.00" departDelay="-0.01" arrival="184.00" arrivalLane="54i_0" arrivalPos="10.00" arrivalSpeed="16.55" duration="176.00" routeLength="617.75" waitingTime="124.00" waitingCount="1" stopTime="0.00" timeLoss="136.93" rerouteNo="0" devices="tripinfo_9" vType="DEFAULT_VEHTYPE" speedFactor="0.86" vaporized=""/>
    <tripinfo id="25" depart="23.00" departLane="51o_0" departPos="5.10" departSpeed="0.00" departDelay="0.75" arrival="184.00" arrivalLane="52i_1" arrivalPos="10.00" arrivalSpeed="16.89" duration="161.00" routeLength="615.10" waitingTime="111.00" waitingCount="1" stopTime="0.00" timeLoss="124.02" rerouteNo="0" devices="tripinfo_25" vType="DEFAULT_VEHTYPE" speedFactor="0.87" vaporized=""/>
    <tripinfo id="35" depart="31.00" departLane="51o_0" departPos="5.10" departSpeed="0.00" departDelay="-0.15" arrival="184.00" arrivalLane="52i_2" arrivalPos="10.00" arrivalSpeed="19.33" duration="153.00" routeLength="615.10" waitingTime="108.00" waitingCount="1" stopTime="0.00" timeLoss="121.20" rerouteNo="0" devices="tripinfo_35" vType="DEFAULT_VEHTYPE" speedFactor="1.02" vaporized=""/>
    <tripinfo id="44" depart="39.00" departLane="51o_0" departPos="5.10" departSpeed="0.00" departDelay="-0.16" arrival="184.00" arrivalLane="53i_0" arrivalPos="10.00" arrivalSpeed="19.12" duration="145.00" routeLength="596.93" waitingTime="99.00" waitingCount="1" stopTime="0.00" timeLoss="114.51" rerouteNo="0" devices="tripinfo_44" vType="DEFAULT_VEHTYPE" speedFactor="1.04" vaporized=""/>
    <tripinfo id="53" depart="47.00" departLane="51o_0" departPos="5.10" departSpeed="0.00" departDelay="-0.17" arrival="185.00" arrivalLane="52i_1" arrivalPos="10.00" arrivalSpeed="18.96" duration="138.00" routeLength="615.10" waitingTime="87.00" waitingCount="1" stopTime="0.00" timeLoss="108.91" rerouteNo="0" devices="tripinfo_53" vType="DEFAULT_VEHTYPE" speedFactor="1.10" vaporized=""/>
    <tripinfo id="54" depart="50.00" departLane="51o_0" departPos="5.10" departSpeed="0.00" departDelay="1.94" arrival="186.00" arrivalLane="52i_2" arrivalPos="10.00" arrivalSpeed="18.33" duration="136.00" routeLength="615.10" waitingTime="89.00" waitingCount="1" stopTime="0.00" timeLoss="103.69" rerouteNo="0" devices="tripinfo_54" vType="DEFAULT_VEHTYPE" speedFactor="1.00" vaporized=""/>
    <tripinfo id="76" depart="68.00" departLane="51o_0" departPos="5.10" departSpeed="0.00" departDelay="0.36" arrival="186.00" arrivalLane="52i_0" arrivalPos="10.00" arrivalSpeed="19.87" duration="118.00" routeLength="615.10" waitingTime="68.00" waitingCount="2" stopTime="0.00" timeLoss="87.28" rerouteNo="0" devices="tripinfo_76" vType="DEFAULT_VEHTYPE" speedFactor="1.03" vaporized=""/>
    <tripinfo id="68" depart="62.00" departLane="51o_0" departPos="5.10" departSpeed="0.00" departDelay="1.48" arrival="187.00" arrivalLane="52i_1" arrivalPos="10.00" arrivalSpeed="19.61" duration="125.00" routeLength="615.10" waitingTime="75.00" waitingCount="1" stopTime="0.00" timeLoss="93.89" rerouteNo="0" devices="tripinfo_68" vType="DEFAULT_VEHTYPE" speedFactor="1.04" vaporized=""/>
    <tripinfo id="98" depart="90.00" departLane="51o_0" departPos="5.10" departSpeed="0.00" departDelay="2.78" arrival="188.00" arrivalLane="52i_1" arrivalPos="10.00" arrivalSpeed="20.61" duration="98.00" routeLength="615.10" waitingTime="47.00" waitingCount="1" stopTime="0.00" timeLoss="69.62" rerouteNo="0" devices="tripinfo_98" vType="DEFAULT_VEHTYPE" speedFactor="1.12" vaporized=""/>
    <tripinfo id="85" depart="75.00" departLane="51o_0" departPos="5.10" departSpeed="0.00" departDelay="-0.65" arrival="189.00" arrivalLane="53i_0" arrivalPos="10.00" arrivalSpeed="18.55" duration="114.00" routeLength="596.93" waitingTime="66.00" waitingCount="1" stopTime="0.00" timeLoss="81.22" rerouteNo="0" devices="tripinfo_85" vType="DEFAULT_VEHTYPE" speedFactor="0.98" vaporized=""/>
    <tripinfo id="117" depart="104.00" departLane="51o_0" departPos="5.10" departSpeed="0.00" departDelay="-0.13" arrival="190.00" arrivalLane="52i_1" arrivalPos="10.00" arrivalSpeed="19.00" duration="86.00" routeLength="615.10" waitingTime="36.00" waitingCount="1" stopTime="0.00" timeLoss="54.19" rerouteNo="0" devices="tripinfo_117" vType="DEFAULT_VEHTYPE" speedFactor="1.00" vaporized=""/>
    <tripinfo id="67" depart="59.00" departLane="51o_0" departPos="5.10" departSpeed="0.00" departDelay="-0.63" arrival="191.00" arrivalLane="54i_0" arrivalPos="10.00" arrivalSpeed="16.61" duration="132.00" routeLength="617.75" waitingTime="81.00" waitingCount="1" stopTime="0.00" timeLoss="96.01" rerouteNo="0" devices="tripinfo_67" vType="DEFAULT_VEHTYPE" speedFactor="0.91" vaporized=""/>