<?xml version="1.0" encoding="UTF-8"?>

<!-- generated on Fri Nov  8 20:57:38 2019 by Eclipse SUMO Version 1.2.0
<configuration xmlns:xsi="http://www.w3.org/2001/XMLSchema-instance" xsi:noNamespaceSchemaLocation="http://sumo.dlr.de/xsd/sumoConfiguration.xsd">

    <input>
        <net-file value="simulation_files/sumocfgs/../networks/isolated_3_lanes_4_stages.net.xml"/>
        <route-files value="simulation_files/sumocfgs/../routes/isolated_3_lanes_80p.rou.xml"/>
    </input>

    <output>
        <tripinfo-output value="./output/exp21_rf_80p/veh_n_pwtl__4_tripinfo_isolated.xml"/>
    </output>

    <time>
        <begin value="0"/>
        <step-length value="1"/>
    </time>

    <report>
        <verbose value="true"/>
        <no-step-log value="true"/>
    </report>

    <gui_only>
        <tracker-interval value="1"/>
    </gui_only>

</configuration>
-->

<tripinfos xmlns:xsi="http://www.w3.org/2001/XMLSchema-instance" xsi:noNamespaceSchemaLocation="http://sumo.dlr.de/xsd/tripinfo_file.xsd">
    <tripinfo id="1" depart="0.00" departLane="54o_0" departPos="5.10" departSpeed="0.00" departDelay="-0.89" arrival="40.00" arrivalLane="53i_0" arrivalPos="10.00" arrivalSpeed="17.63" duration="40.00" routeLength="615.10" waitingTime="0.00" waitingCount="0" stopTime="0.00" timeLoss="5.36" rerouteNo="0" devices="tripinfo_1" vType="DEFAULT_VEHTYPE" speedFactor="0.94" vaporized=""/>
    <tripinfo id="4" depart="3.00" departLane="54o_0" departPos="5.10" departSpeed="0.00" departDelay="-0.56" arrival="41.00" arrivalLane="53i_0" arrivalPos="10.00" arrivalSpeed="18.73" duration="38.00" routeLength="615.10" waitingTime="0.00" waitingCount="0" stopTime="0.00" timeLoss="6.96" rerouteNo="0" devices="tripinfo_4" vType="DEFAULT_VEHTYPE" speedFactor="1.03" vaporized=""/>
    <tripinfo id="3" depart="2.00" departLane="52o_0" departPos="5.10" departSpeed="0.00" departDelay="-0.67" arrival="46.00" arrivalLane="51i_0" arrivalPos="10.00" arrivalSpeed="20.61" duration="44.00" routeLength="615.10" waitingTime="2.00" waitingCount="1" stopTime="0.00" timeLoss="14.49" rerouteNo="0" devices="tripinfo_3" vType="DEFAULT_VEHTYPE" speedFactor="1.08" vaporized=""/>
    <tripinfo id="14" depart="12.00" departLane="52o_0" departPos="5.10" departSpeed="0.00" departDelay="-0.46" arrival="50.00" arrivalLane="51i_0" arrivalPos="10.00" arrivalSpeed="18.25" duration="38.00" routeLength="615.10" waitingTime="0.00" waitingCount="0" stopTime="0.00" timeLoss="5.30" rerouteNo="0" devices="tripinfo_14" vType="DEFAULT_VEHTYPE" speedFactor="0.99" vaporized=""/>
    <tripinfo id="0" depart="0.00" departLane="53o_0" departPos="5.10" departSpeed="0.00" departDelay="0.00" arrival="58.00" arrivalLane="54i_0" arrivalPos="10.00" arrivalSpeed="19.25" duration="58.00" routeLength="615.10" waitingTime="15.00" waitingCount="1" stopTime="0.00" timeLoss="27.90" rerouteNo="0" devices="tripinfo_0" vType="DEFAULT_VEHTYPE" speedFactor="1.06" vaporized=""/>
    <tripinfo id="2" depart="3.00" departLane="53o_0" departPos="5.10" departSpeed="0.00" departDelay="1.22" arrival="58.00" arrivalLane="54i_1" arrivalPos="10.00" arrivalSpeed="18.56" duration="55.00" routeLength="615.10" waitingTime="10.00" waitingCount="1" stopTime="0.00" timeLoss="23.27" rerouteNo="0" devices="tripinfo_2" vType="DEFAULT_VEHTYPE" speedFactor="1.01" vaporized=""/>
    <tripinfo id="11" depart="13.00" departLane="53o_0" departPos="5.10" departSpeed="0.00" departDelay="3.21" arrival="58.00" arrivalLane="51i_0" arrivalPos="10.00" arrivalSpeed="19.03" duration="45.00" routeLength="617.75" waitingTime="1.00" waitingCount="1" stopTime="0.00" timeLoss="12.78" rerouteNo="0" devices="tripinfo_11" vType="DEFAULT_VEHTYPE" speedFactor="1.03" vaporized=""/>
    <tripinfo id="8" depart="7.00" departLane="53o_0" departPos="5.10" departSpeed="0.00" departDelay="-0.12" arrival="61.00" arrivalLane="52i_0" arrivalPos="10.00" arrivalSpeed="17.01" duration="54.00" routeLength="596.93" waitingTime="6.00" waitingCount="1" stopTime="0.00" timeLoss="19.74" rerouteNo="0" devices="tripinfo_8" vType="DEFAULT_VEHTYPE" speedFactor="0.94" vaporized=""/>
    <tripinfo id="15" depart="16.00" departLane="53o_0" departPos="5.10" departSpeed="0.00" departDelay="2.65" arrival="62.00" arrivalLane="54i_2" arrivalPos="10.00" arrivalSpeed="17.54" duration="46.00" routeLength="615.10" waitingTime="0.00" waitingCount="0" stopTime="0.00" timeLoss="11.14" rerouteNo="0" devices="tripinfo_15" vType="DEFAULT_VEHTYPE" speedFactor="0.93" vaporized=""/>
    <tripinfo id="10" depart="10.00" departLane="53o_0" departPos="5.10" departSpeed="0.00" departDelay="1.10" arrival="63.00" arrivalLane="52i_0" arrivalPos="10.00" arrivalSpeed="19.93" duration="53.00" routeLength="596.93" waitingTime="6.00" waitingCount="1" stopTime="0.00" timeLoss="23.39" rerouteNo="0" devices="tripinfo_10" vType="DEFAULT_VEHTYPE" speedFactor="1.09" vaporized=""/>
    <tripinfo id="18" depart="22.00" departLane="53o_0" departPos="5.10" departSpeed="0.00" departDelay="5.98" arrival="63.00" arrivalLane="54i_2" arrivalPos="10.00" arrivalSpeed="17.17" duration="41.00" routeLength="615.10" waitingTime="0.00" waitingCount="0" stopTime="0.00" timeLoss="7.11" rerouteNo="0" devices="tripinfo_18" vType="DEFAULT_VEHTYPE" speedFactor="0.94" vaporized=""/>
    <tripinfo id="20" depart="25.00" departLane="53o_0" departPos="5.10" departSpeed="0.00" departDelay="7.20" arrival="65.00" arrivalLane="54i_2" arrivalPos="10.00" arrivalSpeed="18.96" duration="40.00" routeLength="615.10" waitingTime="0.00" waitingCount="0" stopTime="0.00" timeLoss="8.30" rerouteNo="0" devices="tripinfo_20" vType="DEFAULT_VEHTYPE" speedFactor="1.02" vaporized=""/>
    <tripinfo id="16" depart="19.00" departLane="53o_0" departPos="5.10" departSpeed="0.00" departDelay="4.76" arrival="67.00" arrivalLane="52i_0" arrivalPos="10.00" arrivalSpeed="16.65" duration="48.00" routeLength="596.93" waitingTime="0.00" waitingCount="0" stopTime="0.00" timeLoss="11.49" rerouteNo="0" devices="tripinfo_16" vType="DEFAULT_VEHTYPE" speedFactor="0.88" vaporized=""/>
    <tripinfo id="33" depart="34.00" departLane="53o_0" departPos="5.10" departSpeed="0.00" departDelay="4.63" arrival="67.00" arrivalLane="54i_0" arrivalPos="10.00" arrivalSpeed="21.54" duration="33.00" routeLength="615.10" waitingTime="0.00" waitingCount="0" stopTime="0.00" timeLoss="5.82" rerouteNo="0" devices="tripinfo_33" vType="DEFAULT_VEHTYPE" speedFactor="1.17" vaporized=""/>
    <tripinfo id="24" depart="28.00" departLane="53o_0" departPos="5.10" departSpeed="0.00" departDelay="6.64" arrival="75.00" arrivalLane="51i_0" arrivalPos="10.00" arrivalSpeed="15.83" duration="47.00" routeLength="617.75" waitingTime="0.00" waitingCount="0" stopTime="0.00" timeLoss="6.79" rerouteNo="0" devices="tripinfo_24" vType="DEFAULT_VEHTYPE" speedFactor="0.83" vaporized=""/>
    <tripinfo id="26" depart="31.00" departLane="53o_0" departPos="5.10" departSpeed="0.00" departDelay="7.86" arrival="76.00" arrivalLane="51i_0" arrivalPos="10.00" arrivalSpeed="16.62" duration="45.00" routeLength="617.75" waitingTime="0.00" waitingCount="0" stopTime="0.00" timeLoss="9.27" rerouteNo="0" devices="tripinfo_26" vType="DEFAULT_VEHTYPE" speedFactor="0.92" vaporized=""/>
    <tripinfo id="34" depart="37.00" departLane="53o_0" departPos="5.10" departSpeed="0.00" departDelay="6.74" arrival="78.00" arrivalLane="52i_0" arrivalPos="10.00" arrivalSpeed="18.40" duration="41.00" routeLength="596.93" waitingTime="0.00" waitingCount="0" stopTime="0.00" timeLoss="9.26" rerouteNo="0" devices="tripinfo_34" vType="DEFAULT_VEHTYPE" speedFactor="0.99" vaporized=""/>
    <tripinfo id="36" depart="40.00" departLane="53o_0" departPos="5.10" departSpeed="0.00" departDelay="7.96" arrival="78.00" arrivalLane="54i_1" arrivalPos="10.00" arrivalSpeed="17.72" duration="38.00" routeLength="615.10" waitingTime="0.00" waitingCount="0" stopTime="0.00" timeLoss="5.32" rerouteNo="0" devices="tripinfo_36" vType="DEFAULT_VEHTYPE" speedFactor="0.97" vaporized=""/>
    <tripinfo id="39" depart="43.00" departLane="53o_0" departPos="5.10" departSpeed="0.00" departDelay="8.29" arrival="85.00" arrivalLane="54i_0" arrivalPos="10.00" arrivalSpeed="16.52" duration="42.00" routeLength="615.10" waitingTime="0.00" waitingCount="0" stopTime="0.00" timeLoss="6.04" rerouteNo="0" devices="tripinfo_39" vType="DEFAULT_VEHTYPE" speedFactor="0.90" vaporized=""/>
    <tripinfo id="43" depart="49.00" departLane="53o_0" departPos="5.10" departSpeed="0.00" departDelay="10.73" arrival="86.00" arrivalLane="54i_0" arrivalPos="10.00" arrivalSpeed="19.60" duration="37.00" routeLength="615.10" waitingTime="0.00" waitingCount="0" stopTime="0.00" timeLoss="6.28" rerouteNo="0" devices="tripinfo_43" vType="DEFAULT_VEHTYPE" speedFactor="1.04" vaporized=""/>
    <tripinfo id="41" depart="46.00" departLane="53o_0" departPos="5.10" departSpeed="0.00" departDelay="9.51" arrival="90.00" arrivalLane="51i_0" arrivalPos="10.00" arrivalSpeed="17.62" duration="44.00" routeLength="617.75" waitingTime="0.00" waitingCount="0" stopTime="0.00" timeLoss="8.91" rerouteNo="0" devices="tripinfo_41" vType="DEFAULT_VEHTYPE" speedFactor="0.96" vaporized=""/>
    <tripinfo id="45" depart="52.00" departLane="53o_0" departPos="5.10" departSpeed="0.00" departDelay="11.95" arrival="91.00" arrivalLane="52i_0" arrivalPos="10.00" arrivalSpeed="20.62" duration="39.00" routeLength="596.93" waitingTime="0.00" waitingCount="0" stopTime="0.00" timeLoss="9.69" rerouteNo="0" devices="tripinfo_45" vType="DEFAULT_VEHTYPE" speedFactor="1.09" vaporized=""/>
    <tripinfo id="48" depart="55.00" departLane="53o_0" departPos="5.10" departSpeed="0.00" departDelay="12.28" arrival="96.00" arrivalLane="54i_0" arrivalPos="10.00" arrivalSpeed="16.05" duration="41.00" routeLength="615.10" waitingTime="0.00" waitingCount="0" stopTime="0.00" timeLoss="4.87" rerouteNo="0" devices="tripinfo_48" vType="DEFAULT_VEHTYPE" speedFactor="0.88" vaporized=""/>
    <tripinfo id="49" depart="58.00" departLane="53o_0" departPos="5.10" departSpeed="0.00" departDelay="14.39" arrival="104.00" arrivalLane="52i_0" arrivalPos="10.00" arrivalSpeed="15.37" duration="46.00" routeLength="596.93" waitingTime="0.00" waitingCount="0" stopTime="0.00" timeLoss="8.11" rerouteNo="0" devices="tripinfo_49" vType="DEFAULT_VEHTYPE" speedFactor="0.85" vaporized=""/>
    <tripinfo id="56" depart="64.00" departLane="53o_0" departPos="5.10" departSpeed="0.00" departDelay="14.16" arrival="104.00" arrivalLane="54i_0" arrivalPos="10.00" arrivalSpeed="16.80" duration="40.00" routeLength="615.10" waitingTime="0.00" waitingCount="0" stopTime="0.00" timeLoss="4.74" rerouteNo="0" devices="tripinfo_56" vType="DEFAULT_VEHTYPE" speedFactor="0.90" vaporized=""/>
    <tripinfo id="50" depart="61.00" departLane="53o_0" departPos="5.10" departSpeed="0.00" departDelay="16.50" arrival="107.00" arrivalLane="51i_0" arrivalPos="10.00" arrivalSpeed="15.83" duration="46.00" routeLength="617.75" waitingTime="0.00" waitingCount="0" stopTime="0.00" timeLoss="7.53" rerouteNo="0" devices="tripinfo_50" vType="DEFAULT_VEHTYPE" speedFactor="0.85" vaporized=""/>
    <tripinfo id="63" depart="67.00" departLane="53o_0" departPos="5.10" departSpeed="0.00" departDelay="10.93" arrival="109.00" arrivalLane="51i_0" arrivalPos="10.00" arrivalSpeed="18.84" duration="42.00" routeLength="617.75" waitingTime="0.00" waitingCount="0" stopTime="0.00" timeLoss="8.03" rerouteNo="0" devices="tripinfo_63" vType="DEFAULT_VEHTYPE" speedFactor="0.99" vaporized=""/>
    <tripinfo id="79" depart="70.00" departLane="53o_0" departPos="5.10" departSpeed="0.00" departDelay="-0.31" arrival="109.00" arrivalLane="52i_0" arrivalPos="10.00" arrivalSpeed="21.10" duration="39.00" routeLength="596.93" waitingTime="0.00" waitingCount="0" stopTime="0.00" timeLoss="9.81" rerouteNo="0" devices="tripinfo_79" vType="DEFAULT_VEHTYPE" speedFactor="1.09" vaporized=""/>
    <tripinfo id="83" depart="73.00" departLane="53o_0" departPos="5.10" departSpeed="0.00" departDelay="-0.87" arrival="111.00" arrivalLane="54i_1" arrivalPos="10.00" arrivalSpeed="18.09" duration="38.00" routeLength="615.10" waitingTime="0.00" waitingCount="0" stopTime="0.00" timeLoss="4.73" rerouteNo="0" devices="tripinfo_83" vType="DEFAULT_VEHTYPE" speedFactor="0.97" vaporized=""/>
    <tripinfo id="86" depart="76.00" departLane="53o_0" departPos="5.10" departSpeed="0.00" departDelay="-0.54" arrival="117.00" arrivalLane="52i_0" arrivalPos="10.00" arrivalSpeed="19.42" duration="41.00" routeLength="596.93" waitingTime="0.00" waitingCount="0" stopTime="0.00" timeLoss="9.25" rerouteNo="0" devices="tripinfo_86" vType="DEFAULT_VEHTYPE" speedFactor="1.00" vaporized=""/>
    <tripinfo id="93" depart="82.00" departLane="53o_0" departPos="5.10" departSpeed="0.00" departDelay="-0.77" arrival="125.00" arrivalLane="51i_0" arrivalPos="10.00" arrivalSpeed="17.52" duration="43.00" routeLength="617.75" waitingTime="0.00" waitingCount="0" stopTime="0.00" timeLoss="6.77" rerouteNo="0" devices="tripinfo_93" vType="DEFAULT_VEHTYPE" speedFactor="0.92" vaporized=""/>
    <tripinfo id="101" depart="89.00" departLane="53o_0" departPos="5.10" departSpeed="0.00" departDelay="-0.89" arrival="132.00" arrivalLane="52i_0" arrivalPos="10.00" arrivalSpeed="18.42" duration="43.00" routeLength="596.93" waitingTime="0.00" waitingCount="0" stopTime="0.00" timeLoss="9.39" rerouteNo="0" devices="tripinfo_101" vType="DEFAULT_VEHTYPE" speedFactor="0.96" vaporized=""/>
    <tripinfo id="108" depart="96.00" departLane="53o_0" departPos="5.10" departSpeed="0.00" departDelay="-0.12" arrival="137.00" arrivalLane="51i_0" arrivalPos="10.00" arrivalSpeed="20.25" duration="41.00" routeLength="617.75" waitingTime="0.00" waitingCount="0" stopTime="0.00" timeLoss="9.61" rerouteNo="0" devices="tripinfo_108" vType="DEFAULT_VEHTYPE" speedFactor="1.06" vaporized=""/>
    <tripinfo id="109" depart="99.00" departLane="53o_0" departPos="5.10" departSpeed="0.00" departDelay="1.99" arrival="141.00" arrivalLane="51i_0" arrivalPos="10.00" arrivalSpeed="17.54" duration="42.00" routeLength="617.75" waitingTime="0.00" waitingCount="0" stopTime="0.00" timeLoss="7.20" rerouteNo="0" devices="tripinfo_109" vType="DEFAULT_VEHTYPE" speedFactor="0.96" vaporized=""/>
    <tripinfo id="112" depart="105.00" departLane="53o_0" departPos="5.10" departSpeed="0.00" departDelay="5.32" arrival="144.00" arrivalLane="51i_0" arrivalPos="10.00" arrivalSpeed="20.33" duration="39.00" routeLength="617.75" waitingTime="0.00" waitingCount="0" stopTime="0.00" timeLoss="8.50" rerouteNo="0" devices="tripinfo_112" vType="DEFAULT_VEHTYPE" speedFactor="1.10" vaporized=""/>
    <tripinfo id="111" depart="102.00" departLane="53o_0" departPos="5.10" departSpeed="0.00" departDelay="3.21" arrival="146.00" arrivalLane="52i_0" arrivalPos="10.00" arrivalSpeed="16.69" duration="44.00" routeLength="596.93" waitingTime="0.00" waitingCount="0" stopTime="0.00" timeLoss="7.68" rerouteNo="0" devices="tripinfo_111" vType="DEFAULT_VEHTYPE" speedFactor="0.87" vaporized=""/>
    <tripinfo id="120" depart="108.00" departLane="53o_0" departPos="5.10" departSpeed="0.00" departDelay="1.20" arrival="147.00" arrivalLane="54i_0" arrivalPos="10.00" arrivalSpeed="17.75" duration="39.00" routeLength="615.10" waitingTime="0.00" waitingCount="0" stopTime="0.00" timeLoss="5.31" rerouteNo="0" devices="tripinfo_120" vType="DEFAULT_VEHTYPE" speedFactor="0.94" vaporized=""/>
    <tripinfo id="125" depart="111.00" departLane="53o_0" departPos="5.10" departSpeed="0.00" departDelay="-0.25" arrival="149.00" arrivalLane="52i_0" arrivalPos="10.00" arrivalSpeed="21.50" duration="38.00" routeLength="596.93" waitingTime="0.00" waitingCount="0" stopTime="0.00" timeLoss="10.00" rerouteNo="0" devices="tripinfo_125" vType="DEFAULT_VEHTYPE" speedFactor="1.15" vaporized=""/>
    <tripinfo id="128" depart="117.00" departLane="53o_0" departPos="5.10" departSpeed="0.00" departDelay="3.08" arrival="151.00" arrivalLane="54i_1" arrivalPos="10.00" arrivalSpeed="20.53" duration="34.00" routeLength="615.10" waitingTime="0.00" waitingCount="0" stopTime="0.00" timeLoss="5.71" rerouteNo="0" devices="tripinfo_128" vType="DEFAULT_VEHTYPE" speedFactor="1.12" vaporized=""/>
    <tripinfo id="130" depart="120.00" departLane="53o_0" departPos="5.10" departSpeed="0.00" departDelay="4.30" arrival="157.00" arrivalLane="54i_1" arrivalPos="10.00" arrivalSpeed="19.81" duration="37.00" routeLength="615.10" waitingTime="0.00" waitingCount="0" stopTime="0.00" timeLoss="5.64" rerouteNo="0" devices="tripinfo_130" vType="DEFAULT_VEHTYPE" speedFactor="1.03" vaporized=""/>
    <tripinfo id="127" depart="114.00" departLane="53o_0" departPos="5.10" departSpeed="0.00" departDelay="0.97" arrival="161.00" arrivalLane="52i_0" arrivalPos="10.00" arrivalSpeed="15.90" duration="47.00" routeLength="596.93" waitingTime="0.00" waitingCount="0" stopTime="0.00" timeLoss="8.32" rerouteNo="0" devices="tripinfo_127" vType="DEFAULT_VEHTYPE" speedFactor="0.82" vaporized=""/>
    <tripinfo id="133" depart="123.00" departLane="53o_0" departPos="5.10" departSpeed="0.00" departDelay="4.63" arrival="163.00" arrivalLane="52i_0" arrivalPos="10.00" arrivalSpeed="20.06" duration="40.00" routeLength="596.93" waitingTime="0.00" waitingCount="0" stopTime="0.00" timeLoss="9.51" rerouteNo="0" devices="tripinfo_133" vType="DEFAULT_VEHTYPE" speedFactor="1.04" vaporized=""/>
    <tripinfo id="13" depart="11.00" departLane="51o_0" departPos="5.10" departSpeed="0.00" departDelay="-0.57" arrival="169.00" arrivalLane="53i_0" arrivalPos="10.00" arrivalSpeed="21.70" duration="158.00" routeLength="596.93" waitingTime="117.00" waitingCount="1" stopTime="0.00" timeLoss="129.92" rerouteNo="0" devices="tripinfo_13" vType="DEFAULT_VEHTYPE" speedFactor="1.12" vaporized=""/>
    <tripinfo id="19" depart="16.00" departLane="51o_0" departPos="5.10" departSpeed="0.00" departDelay="-0.91" arrival="171.00" arrivalLane="53i_0" arrivalPos="10.00" arrivalSpeed="21.76" duration="155.00" routeLength="596.93" waitingTime="113.00" waitingCount="1" stopTime="0.00" timeLoss="127.38" rerouteNo="0" devices="tripinfo_19" vType="DEFAULT_VEHTYPE" speedFactor="1.16" vaporized=""/>
    <tripinfo id="28" depart="26.00" departLane="51o_0" departPos="5.10" departSpeed="0.00" departDelay="1.08" arrival="172.00" arrivalLane="52i_2" arrivalPos="10.00" arrivalSpeed="21.19" duration="146.00" routeLength="615.10" waitingTime="103.00" waitingCount="1" stopTime="0.00" timeLoss="117.25" rerouteNo="0" devices="tripinfo_28" vType="DEFAULT_VEHTYPE" speedFactor="1.13" vaporized=""/>
    <tripinfo id="23" depart="20.00" departLane="51o_0" departPos="5.10" departSpeed="0.00" departDelay="-0.47" arrival="173.00" arrivalLane="52i_1" arrivalPos="10.00" arrivalSpeed="17.25" duration="153.00" routeLength="615.10" waitingTime="106.00" waitingCount="1" stopTime="0.00" timeLoss="116.60" rerouteNo="0" devices="tripinfo_23" vType="DEFAULT_VEHTYPE" speedFactor="0.89" vaporized=""/>
    <tripinfo id="9" depart="8.00" departLane="51o_0" departPos="5.10" departSpeed="0.00" departDelay="-0.01" arrival="174.00" arrivalLane="54i_0" arrivalPos="10.00" arrivalSpeed="16.60" duration="166.00" routeLength="617.75" waitingTime="115.00" waitingCount="1" stopTime="0.00" timeLoss="127.46" rerouteNo="0" devices="tripinfo_9" vType="DEFAULT_VEHTYPE" speedFactor="0.86" vaporized=""/>
    <tripinfo id="44" depart="39.00" departLane="51o_0" departPos="5.10" departSpeed="0.00" departDelay="-0.16" arrival="174.00" arrivalLane="53i_0" arrivalPos="10.00" arrivalSpeed="19.06" duration="135.00" routeLength="596.93" waitingTime="90.00" waitingCount="1" stopTime="0.00" timeLoss="104.83" rerouteNo="0" devices="tripinfo_44" vType="DEFAULT_VEHTYPE" speedFactor="1.04" vaporized=""/>
    <tripinfo id="25" depart="23.00" departLane="51o_0" departPos="5.10" departSpeed="0.00" departDelay="0.75" arrival="175.00" arrivalLane="52i_1" arrivalPos="10.00" arrivalSpeed="16.89" duration="152.00" routeLength="615.10" waitingTime="102.00" waitingCount="1" stopTime="0.00" timeLoss="115.09" rerouteNo="0" devices="tripinfo_25" vType="DEFAULT_VEHTYPE" speedFactor="0.87" vaporized=""/>
    <tripinfo id="35" depart="31.00" departLane="51o_0" departPos="5.10" departSpeed="0.00" departDelay="-0.15" arrival="175.00" arrivalLane="52i_2" arrivalPos="10.00" arrivalSpeed="19.33" duration="144.00" routeLength="615.10" waitingTime="99.00" waitingCount="1" stopTime="0.00" timeLoss="112.19" rerouteNo="0" devices="tripinfo_35" vType="DEFAULT_VEHTYPE" speedFactor="1.02" vaporized=""/>
    <tripinfo id="53" depart="47.00" departLane="51o_0" departPos="5.10" departSpeed="0.00" departDelay="-0.17" arrival="176.00" arrivalLane="52i_1" arrivalPos="10.00" arrivalSpeed="18.55" duration="129.00" routeLength="615.10" waitingTime="78.00" waitingCount="1" stopTime="0.00" timeLoss="99.98" rerouteNo="0" devices="tripinfo_53" vType="DEFAULT_VEHTYPE" speedFactor="1.10" vaporized=""/>
    <tripinfo id="54" depart="50.00" departLane="51o_0" departPos="5.10" departSpeed="0.00" departDelay="1.94" arrival="177.00" arrivalLane="52i_2" arrivalPos="10.00" arrivalSpeed="18.33" duration="127.00" routeLength="615.10" waitingTime="79.00" waitingCount="1" stopTime="0.00" timeLoss="94.59" rerouteNo="0" devices="tripinfo_54" vType="DEFAULT_VEHTYPE" speedFactor="1.00" vaporized=""/>
    <tripinfo id="76" depart="68.00" departLane="51o_0" departPos="5.10" departSpeed="0.00" departDelay="0.36" arrival="178.00" arrivalLane="52i_1" arrivalPos="10.00" arrivalSpeed="19.46" duration="110.00" routeLength="615.10" waitingTime="63.00" waitingCount="1" stopTime="0.00" timeLoss="78.82" rerouteNo="0" devices="tripinfo_76" vType="DEFAULT_VEHTYPE" speedFactor="1.03" vaporized=""/>
    <tripinfo id="85" depart="75.00" departLane="51o_0" departPos="5.10" departSpeed="0.00" departDelay="-0.65" arrival="178.00" arrivalLane="53i_0" arrivalPos="10.00" arrivalSpeed="18.92" duration="103.00" routeLength="596.93" waitingTime="56.00" waitingCount="1" stopTime="0.00" timeLoss="70.08" rerouteNo="0" devices="tripinfo_85" vType="DEFAULT_VEHTYPE" speedFactor="0.98" vaporized=""/>
    <tripinfo id="68" depart="62.00" departLane="51o_0" departPos="5.10" departSpeed="0.00" departDelay="1.48" arrival="179.00" arrivalLane="52i_1" arrivalPos="10.00" arrivalSpeed="19.20" duration="117.00" routeLength="615.10" waitingTime="65.00" waitingCount="2" stopTime="0.00" timeLoss="86.57" rerouteNo="0" devices="tripinfo_68" vType="DEFAULT_VEHTYPE" speedFactor="1.04" vaporized=""/>
    <tripinfo id="88" depart="78.00" departLane="51o_0" departPos="5.10" departSpeed="0.00" departDelay="-0.32" arrival="180.00" arrivalLane="53i_0" arrivalPos="10.00" arrivalSpeed="19.32" duration="102.00" routeLength="596.93" waitingTime="52.00" waitingCount="1" stopTime="0.00" timeLoss="70.20" rerouteNo="0" devices="tripinfo_88" vType="DEFAULT_VEHTYPE" speedFactor="1.01" vaporized=""/>
    <tripinfo id="98" depart="90.00" departLane="51o_0" departPos="5.10" departSpeed="0.00" departDelay="2.78" arrival="181.00" arrivalLane="52i_1" arrivalPos="10.00" arrivalSpeed="21.05" duration="91.00" routeLength="615.10" waitingTime="39.00" waitingCount="1" stopTime="0.00" timeLoss="62.31" rerouteNo="0" devices="tripinfo_98" vType="DEFAULT_VEHTYPE" speedFactor="1.12" vaporized=""/>
    <tripinfo id="67" depart="59.00" departLane="51o_0" departPos="5.10" departSpeed="0.00" departDelay="-0.63" arrival="182.00" arrivalLane="54i_0" arrivalPos="10.00" arrivalSpeed="16.91" duration="123.00" routeLength="617.75" waitingTime="71.00" waitingCount="1" stopTime="0.00" timeLoss="86.95" rerouteNo="0" devices="tripinfo_67" vType="DEFAULT_VEHTYPE" speedFactor="0.91" vaporized=""/>
    <tripinfo id="89" depart="81.00" departLane="51o_0" departPos="5.10" departSpeed="0.00" departDelay="1.79" arrival="182.00" arrivalLane="53i_0" arrivalPos="10.00" arrivalSpeed="19.81" duration="101.00" routeLength="596.93" waitingTime="51.00" waitingCount="1" stopTime="0.00" timeLoss="69.81" rerouteNo="0" devices="tripinfo_89" vType="DEFAULT_VEHTYPE" speedFactor="1.02" vaporized=""/>
    <tripinfo id="117" depart="104.00" departLane="51o_0" departPos="5.10" departSpeed="0.00" departDelay="-0.13" arrival="183.00" arrivalLane="52i_1" arrivalPos="10.00" arrivalSpeed="19.11" duration="79.00" routeLength="615.10" waitingTime="26.00" waitingCount="1" stopTime="0.00" timeLoss="46.67" rerouteNo="0" devices="tripinfo_117" vType="DEFAULT_VEHTYPE" speedFactor="1.00" vaporized=""/>
    <tripinfo id="71" depart="65.00" departLane="51o_0" departPos="5.10" departSpeed="0.00" departDelay="1.81" arrival="184.00" arrivalLane="54i_0" arrivalPos="10.00" arrivalSpeed="18.49" duration="119.00" routeLength="617.75" waitingTime="64.00" waitingCount="2" stopTime="0.00" timeLoss="85.26" rerouteNo="0" devices="tripinfo_71" vType="DEFAULT_VEHTYPE" speedFactor="0.97" vaporized=""/>
    <tripinfo id="94" depart="84.00" departLane="51o_0" departPos="5.10" departSpeed="0.00" departDelay="0.34" arrival="184.00" arrivalLane="53i_0" arrivalPos="10.00" arrivalSpeed="20.40" duration="100.00" routeLength="596.93" waitingTime="49.00" waitingCount="1" stopTime="0.00" timeLoss="70.92" rerouteNo="0" devices="tripinfo_94" vType="DEFAULT_VEHTYPE" speedFactor="1.09" vaporized=""/>
    <tripinfo id="137" depart="125.00" departLane="51o_0" departPos="5.10" departSpeed="0.00" departDelay="3.07" arrival="184.00" arrivalLane="52i_1" arrivalPos="10.00" arrivalSpeed="18.84" duration="59.00" routeLength="615.10" waitingTime="8.00" waitingCount="1" stopTime="0.00" timeLoss="27.61" rerouteNo="0" devices="tripinfo_137" vType="DEFAULT_VEHTYPE" speedFactor="1.02" vaporized=""/>
    <tripinfo id="139" depart="128.00" departLane="51o_0" departPos="5.10" departSpeed="0.00" departDelay="4.29" arrival="186.00" arrivalLane="52i_1" arrivalPos="10.00" arrivalSpeed="18.34" duration="58.00" routeLength="615.10" waitingTime="5.00" waitingCount="1" stopTime="0.00" timeLoss="24.18" rerouteNo="0" devices="tripinfo_139" vType="DEFAULT_VEHTYPE" speedFactor="0.95" vaporized=""/>
    <tripinfo id="97" depart="87.00" departLane="51o_0" departPos="5.10" departSpeed="0.00" departDelay="0.67" arrival="187.00" arrivalLane="54i_0" arrivalPos="10.00" arrivalSpeed="17.57" duration="100.00" routeLength="617.75" waitingTime="47.00" waitingCount="1" stopTime="0.00" timeLoss="63.88" rerouteNo="0" devices="tripinfo_97" vType="DEFAULT_VEHTYPE" speedFactor="0.91" vaporized=""/>
    <tripinfo id="106" depart="96.00" departLane="51o_0" departPos="5.10" departSpeed="0.00" departDelay="1.66" arrival="187.00" arrivalLane="53i_0" arrivalPos="10.00" arrivalSpeed="18.57" duration="91.00" routeLength="596.93" waitingTime="40.00" waitingCount="1" stopTime="0.00" timeLoss="59.51" rerouteNo="0" devices="tripinfo_106" vType="DEFAULT_VEHTYPE" speedFactor="1.01" vaporized=""/>
    <tripinfo id="145" depart="140.00" departLane="51o_0" departPos="5.10" departSpeed="0.00" departDelay="10.95" arrival="187.00" arrivalLane="52i_1" arrivalPos="10.00" arrivalSpeed="19.03" duration="47.00" routeLength="615.10" waitingTime="0.00" waitingCount="0" stopTime="0.00" timeLoss="19.14" rerouteNo="0" devices="tripinfo_145" vType="DEFAULT_VEHTYPE" speedFactor="1.14" vaporized=""/>
    <tripinfo id="102" depart="93.00" departLane="51o_0" departPos="5.10" departSpeed="0.00" departDelay="2.22" arrival="189.00" arrivalLane="54i_0" arrivalPos="10.00" arrivalSpeed="18.07" duration="96.00" routeLength="617.75" waitingTime="42.00" waitingCount="1" stopTime="0.00" timeLoss="61.84" rerouteNo="0" devices="tripinfo_102" vType="DEFAULT_VEHTYPE" speedFactor="0.97" vaporized=""/>
    <tripinfo id="162" depart="150.00" departLane="51o_0" departPos="5.10" departSpeed="0.00" departDelay="5.82" arrival="189.00" arrivalLane="52i_1" arrivalPos="10.00" arrivalSpeed="18.87" duration="39.00" routeLength="615.10" waitingTime="0.00" waitingCount="0" stopTime="0.00" timeLoss="7.12" rerouteNo="0" devices="tripinfo_162" vType="DEFAULT_VEHTYPE" speedFactor="0.99" vaporized=""/>
    <tripinfo id="126" depart="112.00" departLane="51o_0" departPos="5.10" departSpeed="0.00" departDelay="-0.14" arrival="191.00" arrivalLane="54i_0" arrivalPos="10.00" arrivalSpeed="19.82" duration="79.00" routeLength="617.75" waitingTime="27.00" waitingCount="1" stopTime="0.00" timeLoss="46.51" rerouteNo="0" devices="tripinfo_126" vType="DEFAULT_VEHTYPE" speedFactor="1.03" vaporized=""/>
    <tripinfo id="110" depart="99.00" departLane="51o_0" departPos="5.10" departSpeed="0.00" departDelay="1.10" arrival="192.00" arrivalLane="53i_0" arrivalPos="10.00" arrivalSpeed="16.85" duration="93.00" routeLength="596.93" waitingTime="38.00" waitingCount="1" stopTime="0.00" timeLoss="58.13" rerouteNo="0" devices="tripinfo_110" vType="DEFAULT_VEHTYPE" speedFactor="0.93" vaporized=""/>
    <tripinfo id="122" depart="108.00" departLane="51o_0" departPos="5.10" departSpeed="0.00" departDelay="-0.58" arrival="193.00" arrivalLane="53i_0" arrivalPos="10.00" arrivalSpeed="19.34" duration="85.00" routeLength="596.93" waitingTime="30.00" waitingCount="1" stopTime="0.00" timeLoss="54.01" rerouteNo="0" devices="tripinfo_122" vType="DEFAULT_VEHTYPE" speedFactor="1.03" vaporized=""/>
    <tripinfo id="132" depart="119.00" departLane="51o_0" departPos="5.10" departSpeed="0.00" departDelay="1.52" arrival="194.00" arrivalLane="54i_0" arrivalPos="10.00" arrivalSpeed="18.55" duration="75.00" routeLength="617.75" waitingTime="20.00" waitingCount="1" stopTime="0.00" timeLoss="40.97" rerouteNo="0" devices="tripinfo_132" vType="DEFAULT_VEHTYPE" speedFactor="0.96" vaporized=""/>
    <tripinfo id="131" depart="116.00" departLane="51o_0" departPos="5.10" departSpeed="0.00" departDelay="-0.59" arrival="195.00" arrivalLane="53i_0" arrivalPos="10.00" arrivalSpeed="19.81" duration="79.00" routeLength="596.93" waitingTime="24.00" waitingCount="1" stopTime="0.00" timeLoss="48.67" rerouteNo="0" devices="tripinfo_131" vType="DEFAULT_VEHTYPE" speedFactor="1.07" vaporized=""/>