<?xml version="1.0" encoding="UTF-8"?>

<!-- generated on Fri Nov  8 03:23:12 2019 by Eclipse SUMO Version 1.2.0
<configuration xmlns:xsi="http://www.w3.org/2001/XMLSchema-instance" xsi:noNamespaceSchemaLocation="http://sumo.dlr.de/xsd/sumoConfiguration.xsd">

    <input>
        <net-file value="simulation_files/sumocfgs/../networks/isolated_3_lanes_4_stages.net.xml"/>
        <route-files value="simulation_files/sumocfgs/../routes/isolated_3_lanes_80p.rou.xml"/>
    </input>

    <output>
        <tripinfo-output value="./output/exp21_rf_80p/veh_n__5_tripinfo_isolated.xml"/>
    </output>

    <time>
        <begin value="0"/>
        <step-length value="1"/>
    </time>

    <report>
        <verbose value="true"/>
        <no-step-log value="true"/>
    </report>

    <gui_only>
        <tracker-interval value="1"/>
    </gui_only>

</configuration>
-->

<tripinfos xmlns:xsi="http://www.w3.org/2001/XMLSchema-instance" xsi:noNamespaceSchemaLocation="http://sumo.dlr.de/xsd/tripinfo_file.xsd">
    <tripinfo id="1" depart="0.00" departLane="54o_0" departPos="5.10" departSpeed="0.00" departDelay="-0.89" arrival="40.00" arrivalLane="53i_0" arrivalPos="10.00" arrivalSpeed="17.63" duration="40.00" routeLength="615.10" waitingTime="0.00" waitingCount="0" stopTime="0.00" timeLoss="5.36" rerouteNo="0" devices="tripinfo_1" vType="DEFAULT_VEHTYPE" speedFactor="0.94" vaporized=""/>
    <tripinfo id="4" depart="3.00" departLane="54o_0" departPos="5.10" departSpeed="0.00" departDelay="-0.56" arrival="41.00" arrivalLane="53i_0" arrivalPos="10.00" arrivalSpeed="19.46" duration="38.00" routeLength="615.10" waitingTime="0.00" waitingCount="0" stopTime="0.00" timeLoss="6.91" rerouteNo="0" devices="tripinfo_4" vType="DEFAULT_VEHTYPE" speedFactor="1.03" vaporized=""/>
    <tripinfo id="3" depart="2.00" departLane="52o_0" departPos="5.10" departSpeed="0.00" departDelay="-0.67" arrival="46.00" arrivalLane="51i_0" arrivalPos="10.00" arrivalSpeed="20.37" duration="44.00" routeLength="615.10" waitingTime="2.00" waitingCount="1" stopTime="0.00" timeLoss="14.48" rerouteNo="0" devices="tripinfo_3" vType="DEFAULT_VEHTYPE" speedFactor="1.08" vaporized=""/>
    <tripinfo id="14" depart="12.00" departLane="52o_0" departPos="5.10" departSpeed="0.00" departDelay="-0.46" arrival="50.00" arrivalLane="51i_0" arrivalPos="10.00" arrivalSpeed="18.25" duration="38.00" routeLength="615.10" waitingTime="0.00" waitingCount="0" stopTime="0.00" timeLoss="5.20" rerouteNo="0" devices="tripinfo_14" vType="DEFAULT_VEHTYPE" speedFactor="0.99" vaporized=""/>
    <tripinfo id="21" depart="18.00" departLane="52o_0" departPos="5.10" departSpeed="0.00" departDelay="-0.69" arrival="55.00" arrivalLane="51i_0" arrivalPos="10.00" arrivalSpeed="19.41" duration="37.00" routeLength="615.10" waitingTime="0.00" waitingCount="0" stopTime="0.00" timeLoss="4.71" rerouteNo="0" devices="tripinfo_21" vType="DEFAULT_VEHTYPE" speedFactor="1.01" vaporized=""/>
    <tripinfo id="22" depart="21.00" departLane="52o_0" departPos="5.10" departSpeed="0.00" departDelay="1.42" arrival="60.00" arrivalLane="51i_0" arrivalPos="10.00" arrivalSpeed="17.97" duration="39.00" routeLength="615.10" waitingTime="0.00" waitingCount="0" stopTime="0.00" timeLoss="5.67" rerouteNo="0" devices="tripinfo_22" vType="DEFAULT_VEHTYPE" speedFactor="0.98" vaporized=""/>
    <tripinfo id="30" depart="26.00" departLane="52o_0" departPos="5.10" departSpeed="0.00" departDelay="-0.70" arrival="63.00" arrivalLane="53i_0" arrivalPos="10.00" arrivalSpeed="21.78" duration="37.00" routeLength="617.75" waitingTime="0.00" waitingCount="0" stopTime="0.00" timeLoss="8.70" rerouteNo="0" devices="tripinfo_30" vType="DEFAULT_VEHTYPE" speedFactor="1.18" vaporized=""/>
    <tripinfo id="31" depart="29.00" departLane="52o_0" departPos="5.10" departSpeed="0.00" departDelay="1.41" arrival="66.00" arrivalLane="54i_0" arrivalPos="10.00" arrivalSpeed="21.31" duration="37.00" routeLength="596.93" waitingTime="0.00" waitingCount="0" stopTime="0.00" timeLoss="9.47" rerouteNo="0" devices="tripinfo_31" vType="DEFAULT_VEHTYPE" speedFactor="1.15" vaporized=""/>
    <tripinfo id="38" depart="33.00" departLane="52o_0" departPos="5.10" departSpeed="0.00" departDelay="-0.82" arrival="72.00" arrivalLane="54i_0" arrivalPos="10.00" arrivalSpeed="20.93" duration="39.00" routeLength="596.93" waitingTime="0.00" waitingCount="0" stopTime="0.00" timeLoss="9.64" rerouteNo="0" devices="tripinfo_38" vType="DEFAULT_VEHTYPE" speedFactor="1.10" vaporized=""/>
    <tripinfo id="40" depart="36.00" departLane="52o_0" departPos="5.10" departSpeed="0.00" departDelay="0.40" arrival="77.00" arrivalLane="54i_0" arrivalPos="10.00" arrivalSpeed="19.04" duration="41.00" routeLength="596.93" waitingTime="0.00" waitingCount="0" stopTime="0.00" timeLoss="9.88" rerouteNo="0" devices="tripinfo_40" vType="DEFAULT_VEHTYPE" speedFactor="1.03" vaporized=""/>
    <tripinfo id="42" depart="39.00" departLane="52o_0" departPos="5.10" departSpeed="0.00" departDelay="1.62" arrival="78.00" arrivalLane="53i_0" arrivalPos="10.00" arrivalSpeed="20.48" duration="39.00" routeLength="617.75" waitingTime="0.00" waitingCount="0" stopTime="0.00" timeLoss="7.78" rerouteNo="0" devices="tripinfo_42" vType="DEFAULT_VEHTYPE" speedFactor="1.09" vaporized=""/>
    <tripinfo id="46" depart="42.00" departLane="52o_0" departPos="5.10" departSpeed="0.00" departDelay="1.06" arrival="80.00" arrivalLane="51i_0" arrivalPos="10.00" arrivalSpeed="19.04" duration="38.00" routeLength="615.10" waitingTime="0.00" waitingCount="0" stopTime="0.00" timeLoss="5.80" rerouteNo="0" devices="tripinfo_46" vType="DEFAULT_VEHTYPE" speedFactor="1.00" vaporized=""/>
    <tripinfo id="52" depart="48.00" departLane="52o_0" departPos="5.10" departSpeed="0.00" departDelay="1.72" arrival="85.00" arrivalLane="51i_0" arrivalPos="10.00" arrivalSpeed="19.38" duration="37.00" routeLength="615.10" waitingTime="0.00" waitingCount="0" stopTime="0.00" timeLoss="5.33" rerouteNo="0" devices="tripinfo_52" vType="DEFAULT_VEHTYPE" speedFactor="1.02" vaporized=""/>
    <tripinfo id="58" depart="51.00" departLane="52o_0" departPos="5.10" departSpeed="0.00" departDelay="-0.62" arrival="88.00" arrivalLane="51i_0" arrivalPos="10.00" arrivalSpeed="19.71" duration="37.00" routeLength="615.10" waitingTime="0.00" waitingCount="0" stopTime="0.00" timeLoss="5.88" rerouteNo="0" devices="tripinfo_58" vType="DEFAULT_VEHTYPE" speedFactor="1.02" vaporized=""/>
    <tripinfo id="47" depart="45.00" departLane="52o_0" departPos="5.10" departSpeed="0.00" departDelay="3.17" arrival="89.00" arrivalLane="53i_0" arrivalPos="10.00" arrivalSpeed="17.45" duration="44.00" routeLength="617.75" waitingTime="0.00" waitingCount="0" stopTime="0.00" timeLoss="6.36" rerouteNo="0" devices="tripinfo_47" vType="DEFAULT_VEHTYPE" speedFactor="0.90" vaporized=""/>
    <tripinfo id="59" depart="54.00" departLane="52o_0" departPos="5.10" departSpeed="0.00" departDelay="1.49" arrival="96.00" arrivalLane="53i_0" arrivalPos="10.00" arrivalSpeed="17.89" duration="42.00" routeLength="617.75" waitingTime="0.00" waitingCount="0" stopTime="0.00" timeLoss="7.52" rerouteNo="0" devices="tripinfo_59" vType="DEFAULT_VEHTYPE" speedFactor="0.97" vaporized=""/>
    <tripinfo id="61" depart="57.00" departLane="52o_0" departPos="5.10" departSpeed="0.00" departDelay="2.71" arrival="98.00" arrivalLane="53i_0" arrivalPos="10.00" arrivalSpeed="21.09" duration="41.00" routeLength="617.75" waitingTime="0.00" waitingCount="0" stopTime="0.00" timeLoss="11.32" rerouteNo="0" devices="tripinfo_61" vType="DEFAULT_VEHTYPE" speedFactor="1.12" vaporized=""/>
    <tripinfo id="66" depart="60.00" departLane="52o_0" departPos="5.10" departSpeed="0.00" departDelay="1.26" arrival="104.00" arrivalLane="53i_0" arrivalPos="10.00" arrivalSpeed="16.97" duration="44.00" routeLength="617.75" waitingTime="0.00" waitingCount="0" stopTime="0.00" timeLoss="7.43" rerouteNo="0" devices="tripinfo_66" vType="DEFAULT_VEHTYPE" speedFactor="0.91" vaporized=""/>
    <tripinfo id="69" depart="63.00" departLane="52o_0" departPos="5.10" departSpeed="0.00" departDelay="1.59" arrival="106.00" arrivalLane="53i_0" arrivalPos="10.00" arrivalSpeed="18.69" duration="43.00" routeLength="617.75" waitingTime="0.00" waitingCount="0" stopTime="0.00" timeLoss="10.12" rerouteNo="0" devices="tripinfo_69" vType="DEFAULT_VEHTYPE" speedFactor="1.02" vaporized=""/>
    <tripinfo id="72" depart="66.00" departLane="52o_0" departPos="5.10" departSpeed="0.00" departDelay="1.92" arrival="106.00" arrivalLane="51i_0" arrivalPos="10.00" arrivalSpeed="17.82" duration="40.00" routeLength="615.10" waitingTime="0.00" waitingCount="0" stopTime="0.00" timeLoss="5.77" rerouteNo="0" devices="tripinfo_72" vType="DEFAULT_VEHTYPE" speedFactor="0.94" vaporized=""/>
    <tripinfo id="2" depart="3.00" departLane="53o_0" departPos="5.10" departSpeed="0.00" departDelay="1.22" arrival="112.00" arrivalLane="54i_1" arrivalPos="10.00" arrivalSpeed="18.93" duration="109.00" routeLength="615.10" waitingTime="64.00" waitingCount="1" stopTime="0.00" timeLoss="77.13" rerouteNo="0" devices="tripinfo_2" vType="DEFAULT_VEHTYPE" speedFactor="1.01" vaporized=""/>
    <tripinfo id="11" depart="13.00" departLane="53o_0" departPos="5.10" departSpeed="0.00" departDelay="3.21" arrival="112.00" arrivalLane="51i_0" arrivalPos="10.00" arrivalSpeed="19.21" duration="99.00" routeLength="617.75" waitingTime="55.00" waitingCount="1" stopTime="0.00" timeLoss="66.84" rerouteNo="0" devices="tripinfo_11" vType="DEFAULT_VEHTYPE" speedFactor="1.03" vaporized=""/>
    <tripinfo id="0" depart="0.00" departLane="53o_0" departPos="5.10" departSpeed="0.00" departDelay="0.00" arrival="113.00" arrivalLane="54i_0" arrivalPos="10.00" arrivalSpeed="20.27" duration="113.00" routeLength="615.10" waitingTime="69.00" waitingCount="1" stopTime="0.00" timeLoss="82.38" rerouteNo="0" devices="tripinfo_0" vType="DEFAULT_VEHTYPE" speedFactor="1.06" vaporized=""/>
    <tripinfo id="8" depart="7.00" departLane="53o_0" departPos="5.10" departSpeed="0.00" departDelay="-0.12" arrival="115.00" arrivalLane="52i_0" arrivalPos="10.00" arrivalSpeed="17.01" duration="108.00" routeLength="596.93" waitingTime="60.00" waitingCount="1" stopTime="0.00" timeLoss="74.09" rerouteNo="0" devices="tripinfo_8" vType="DEFAULT_VEHTYPE" speedFactor="0.94" vaporized=""/>
    <tripinfo id="15" depart="16.00" departLane="53o_0" departPos="5.10" departSpeed="0.00" departDelay="2.65" arrival="115.00" arrivalLane="54i_2" arrivalPos="10.00" arrivalSpeed="17.19" duration="99.00" routeLength="615.10" waitingTime="51.00" waitingCount="1" stopTime="0.00" timeLoss="64.58" rerouteNo="0" devices="tripinfo_15" vType="DEFAULT_VEHTYPE" speedFactor="0.93" vaporized=""/>
    <tripinfo id="18" depart="22.00" departLane="53o_0" departPos="5.10" departSpeed="0.00" departDelay="5.98" arrival="115.00" arrivalLane="54i_1" arrivalPos="10.00" arrivalSpeed="17.94" duration="93.00" routeLength="615.10" waitingTime="43.00" waitingCount="1" stopTime="0.00" timeLoss="58.34" rerouteNo="0" devices="tripinfo_18" vType="DEFAULT_VEHTYPE" speedFactor="0.94" vaporized=""/>
    <tripinfo id="33" depart="34.00" departLane="53o_0" departPos="5.10" departSpeed="0.00" departDelay="4.63" arrival="116.00" arrivalLane="54i_1" arrivalPos="10.00" arrivalSpeed="20.20" duration="82.00" routeLength="615.10" waitingTime="35.00" waitingCount="1" stopTime="0.00" timeLoss="54.87" rerouteNo="0" devices="tripinfo_33" vType="DEFAULT_VEHTYPE" speedFactor="1.17" vaporized=""/>
    <tripinfo id="10" depart="10.00" departLane="53o_0" departPos="5.10" departSpeed="0.00" departDelay="1.10" arrival="117.00" arrivalLane="52i_0" arrivalPos="10.00" arrivalSpeed="19.93" duration="107.00" routeLength="596.93" waitingTime="60.00" waitingCount="1" stopTime="0.00" timeLoss="76.75" rerouteNo="0" devices="tripinfo_10" vType="DEFAULT_VEHTYPE" speedFactor="1.09" vaporized=""/>
    <tripinfo id="20" depart="25.00" departLane="53o_0" departPos="5.10" departSpeed="0.00" departDelay="7.20" arrival="117.00" arrivalLane="54i_2" arrivalPos="10.00" arrivalSpeed="19.32" duration="92.00" routeLength="615.10" waitingTime="44.00" waitingCount="1" stopTime="0.00" timeLoss="60.09" rerouteNo="0" devices="tripinfo_20" vType="DEFAULT_VEHTYPE" speedFactor="1.02" vaporized=""/>
    <tripinfo id="36" depart="40.00" departLane="53o_0" departPos="5.10" departSpeed="0.00" departDelay="7.96" arrival="118.00" arrivalLane="54i_1" arrivalPos="10.00" arrivalSpeed="18.05" duration="78.00" routeLength="615.10" waitingTime="26.00" waitingCount="1" stopTime="0.00" timeLoss="45.28" rerouteNo="0" devices="tripinfo_36" vType="DEFAULT_VEHTYPE" speedFactor="0.97" vaporized=""/>
    <tripinfo id="16" depart="19.00" departLane="53o_0" departPos="5.10" departSpeed="0.00" departDelay="4.76" arrival="122.00" arrivalLane="52i_0" arrivalPos="10.00" arrivalSpeed="16.68" duration="103.00" routeLength="596.93" waitingTime="52.00" waitingCount="1" stopTime="0.00" timeLoss="66.49" rerouteNo="0" devices="tripinfo_16" vType="DEFAULT_VEHTYPE" speedFactor="0.88" vaporized=""/>
    <tripinfo id="39" depart="43.00" departLane="53o_0" departPos="5.10" departSpeed="0.00" departDelay="8.29" arrival="122.00" arrivalLane="54i_1" arrivalPos="10.00" arrivalSpeed="16.23" duration="79.00" routeLength="615.10" waitingTime="24.00" waitingCount="2" stopTime="0.00" timeLoss="43.01" rerouteNo="0" devices="tripinfo_39" vType="DEFAULT_VEHTYPE" speedFactor="0.90" vaporized=""/>
    <tripinfo id="24" depart="28.00" departLane="53o_0" departPos="5.10" departSpeed="0.00" departDelay="6.64" arrival="123.00" arrivalLane="51i_0" arrivalPos="10.00" arrivalSpeed="15.80" duration="95.00" routeLength="617.75" waitingTime="40.00" waitingCount="1" stopTime="0.00" timeLoss="55.28" rerouteNo="0" devices="tripinfo_24" vType="DEFAULT_VEHTYPE" speedFactor="0.83" vaporized=""/>
    <tripinfo id="43" depart="49.00" departLane="53o_0" departPos="5.10" departSpeed="0.00" departDelay="10.73" arrival="123.00" arrivalLane="54i_1" arrivalPos="10.00" arrivalSpeed="18.35" duration="74.00" routeLength="615.10" waitingTime="22.00" waitingCount="1" stopTime="0.00" timeLoss="43.15" rerouteNo="0" devices="tripinfo_43" vType="DEFAULT_VEHTYPE" speedFactor="1.04" vaporized=""/>
    <tripinfo id="34" depart="37.00" departLane="53o_0" departPos="5.10" departSpeed="0.00" departDelay="6.74" arrival="124.00" arrivalLane="52i_0" arrivalPos="10.00" arrivalSpeed="18.18" duration="87.00" routeLength="596.93" waitingTime="34.00" waitingCount="1" stopTime="0.00" timeLoss="54.86" rerouteNo="0" devices="tripinfo_34" vType="DEFAULT_VEHTYPE" speedFactor="0.99" vaporized=""/>
    <tripinfo id="26" depart="31.00" departLane="53o_0" departPos="5.10" departSpeed="0.00" departDelay="7.86" arrival="125.00" arrivalLane="51i_0" arrivalPos="10.00" arrivalSpeed="16.94" duration="94.00" routeLength="617.75" waitingTime="40.00" waitingCount="1" stopTime="0.00" timeLoss="57.94" rerouteNo="0" devices="tripinfo_26" vType="DEFAULT_VEHTYPE" speedFactor="0.92" vaporized=""/>
    <tripinfo id="45" depart="52.00" departLane="53o_0" departPos="5.10" departSpeed="0.00" departDelay="11.95" arrival="125.00" arrivalLane="52i_0" arrivalPos="10.00" arrivalSpeed="19.95" duration="73.00" routeLength="596.93" waitingTime="21.00" waitingCount="1" stopTime="0.00" timeLoss="43.41" rerouteNo="0" devices="tripinfo_45" vType="DEFAULT_VEHTYPE" speedFactor="1.09" vaporized=""/>
    <tripinfo id="56" depart="64.00" departLane="53o_0" departPos="5.10" departSpeed="0.00" departDelay="14.16" arrival="125.00" arrivalLane="54i_1" arrivalPos="10.00" arrivalSpeed="16.27" duration="61.00" routeLength="615.10" waitingTime="11.00" waitingCount="1" stopTime="0.00" timeLoss="25.42" rerouteNo="0" devices="tripinfo_56" vType="DEFAULT_VEHTYPE" speedFactor="0.90" vaporized=""/>
    <tripinfo id="41" depart="46.00" departLane="53o_0" departPos="5.10" departSpeed="0.00" departDelay="9.51" arrival="127.00" arrivalLane="51i_0" arrivalPos="10.00" arrivalSpeed="17.72" duration="81.00" routeLength="617.75" waitingTime="26.00" waitingCount="1" stopTime="0.00" timeLoss="46.02" rerouteNo="0" devices="tripinfo_41" vType="DEFAULT_VEHTYPE" speedFactor="0.96" vaporized=""/>
    <tripinfo id="83" depart="73.00" departLane="53o_0" departPos="5.10" departSpeed="0.00" departDelay="-0.87" arrival="127.00" arrivalLane="54i_1" arrivalPos="10.00" arrivalSpeed="18.69" duration="54.00" routeLength="615.10" waitingTime="0.00" waitingCount="0" stopTime="0.00" timeLoss="20.42" rerouteNo="0" devices="tripinfo_83" vType="DEFAULT_VEHTYPE" speedFactor="0.97" vaporized=""/>
    <tripinfo id="48" depart="55.00" departLane="53o_0" departPos="5.10" departSpeed="0.00" departDelay="12.28" arrival="129.00" arrivalLane="54i_2" arrivalPos="10.00" arrivalSpeed="16.21" duration="74.00" routeLength="615.10" waitingTime="20.00" waitingCount="1" stopTime="0.00" timeLoss="37.52" rerouteNo="0" devices="tripinfo_48" vType="DEFAULT_VEHTYPE" speedFactor="0.88" vaporized=""/>
    <tripinfo id="49" depart="58.00" departLane="53o_0" departPos="5.10" departSpeed="0.00" departDelay="14.39" arrival="130.00" arrivalLane="52i_0" arrivalPos="10.00" arrivalSpeed="15.62" duration="72.00" routeLength="596.93" waitingTime="16.00" waitingCount="1" stopTime="0.00" timeLoss="34.60" rerouteNo="0" devices="tripinfo_49" vType="DEFAULT_VEHTYPE" speedFactor="0.85" vaporized=""/>
    <tripinfo id="79" depart="70.00" departLane="53o_0" departPos="5.10" departSpeed="0.00" departDelay="-0.31" arrival="131.00" arrivalLane="52i_0" arrivalPos="10.00" arrivalSpeed="18.16" duration="61.00" routeLength="596.93" waitingTime="7.00" waitingCount="1" stopTime="0.00" timeLoss="31.51" rerouteNo="0" devices="tripinfo_79" vType="DEFAULT_VEHTYPE" speedFactor="1.09" vaporized=""/>
    <tripinfo id="50" depart="61.00" departLane="53o_0" departPos="5.10" departSpeed="0.00" departDelay="16.50" arrival="133.00" arrivalLane="51i_0" arrivalPos="10.00" arrivalSpeed="16.50" duration="72.00" routeLength="617.75" waitingTime="14.00" waitingCount="1" stopTime="0.00" timeLoss="33.46" rerouteNo="0" devices="tripinfo_50" vType="DEFAULT_VEHTYPE" speedFactor="0.85" vaporized=""/>
    <tripinfo id="86" depart="76.00" departLane="53o_0" departPos="5.10" departSpeed="0.00" departDelay="-0.54" arrival="133.00" arrivalLane="52i_0" arrivalPos="10.00" arrivalSpeed="18.37" duration="57.00" routeLength="596.93" waitingTime="2.00" waitingCount="1" stopTime="0.00" timeLoss="25.03" rerouteNo="0" devices="tripinfo_86" vType="DEFAULT_VEHTYPE" speedFactor="1.00" vaporized=""/>
    <tripinfo id="63" depart="67.00" departLane="53o_0" departPos="5.10" departSpeed="0.00" departDelay="10.93" arrival="135.00" arrivalLane="51i_0" arrivalPos="10.00" arrivalSpeed="18.46" duration="68.00" routeLength="617.75" waitingTime="10.00" waitingCount="1" stopTime="0.00" timeLoss="34.03" rerouteNo="0" devices="tripinfo_63" vType="DEFAULT_VEHTYPE" speedFactor="0.99" vaporized=""/>
    <tripinfo id="93" depart="82.00" departLane="53o_0" departPos="5.10" departSpeed="0.00" departDelay="-0.77" arrival="136.00" arrivalLane="51i_0" arrivalPos="10.00" arrivalSpeed="17.87" duration="54.00" routeLength="617.75" waitingTime="0.00" waitingCount="0" stopTime="0.00" timeLoss="18.44" rerouteNo="0" devices="tripinfo_93" vType="DEFAULT_VEHTYPE" speedFactor="0.92" vaporized=""/>
    <tripinfo id="101" depart="89.00" departLane="53o_0" departPos="5.10" departSpeed="0.00" departDelay="-0.89" arrival="136.00" arrivalLane="52i_0" arrivalPos="10.00" arrivalSpeed="17.59" duration="47.00" routeLength="596.93" waitingTime="0.00" waitingCount="0" stopTime="0.00" timeLoss="13.06" rerouteNo="0" devices="tripinfo_101" vType="DEFAULT_VEHTYPE" speedFactor="0.96" vaporized=""/>
    <tripinfo id="108" depart="96.00" departLane="53o_0" departPos="5.10" departSpeed="0.00" departDelay="-0.12" arrival="138.00" arrivalLane="51i_0" arrivalPos="10.00" arrivalSpeed="19.67" duration="42.00" routeLength="617.75" waitingTime="0.00" waitingCount="0" stopTime="0.00" timeLoss="10.45" rerouteNo="0" devices="tripinfo_108" vType="DEFAULT_VEHTYPE" speedFactor="1.06" vaporized=""/>
    <tripinfo id="13" depart="11.00" departLane="51o_0" departPos="5.10" departSpeed="0.00" departDelay="-0.57" arrival="142.00" arrivalLane="53i_0" arrivalPos="10.00" arrivalSpeed="21.18" duration="131.00" routeLength="596.93" waitingTime="90.00" waitingCount="1" stopTime="0.00" timeLoss="102.72" rerouteNo="0" devices="tripinfo_13" vType="DEFAULT_VEHTYPE" speedFactor="1.12" vaporized=""/>
    <tripinfo id="19" depart="16.00" departLane="51o_0" departPos="5.10" departSpeed="0.00" departDelay="-0.91" arrival="144.00" arrivalLane="53i_0" arrivalPos="10.00" arrivalSpeed="21.84" duration="128.00" routeLength="596.93" waitingTime="86.00" waitingCount="1" stopTime="0.00" timeLoss="100.38" rerouteNo="0" devices="tripinfo_19" vType="DEFAULT_VEHTYPE" speedFactor="1.16" vaporized=""/>
    <tripinfo id="28" depart="26.00" departLane="51o_0" departPos="5.10" departSpeed="0.00" departDelay="1.08" arrival="144.00" arrivalLane="52i_2" arrivalPos="10.00" arrivalSpeed="21.65" duration="118.00" routeLength="615.10" waitingTime="76.00" waitingCount="1" stopTime="0.00" timeLoss="90.01" rerouteNo="0" devices="tripinfo_28" vType="DEFAULT_VEHTYPE" speedFactor="1.13" vaporized=""/>
    <tripinfo id="9" depart="8.00" departLane="51o_0" departPos="5.10" departSpeed="0.00" departDelay="-0.01" arrival="146.00" arrivalLane="54i_0" arrivalPos="10.00" arrivalSpeed="15.82" duration="138.00" routeLength="617.75" waitingTime="88.00" waitingCount="1" stopTime="0.00" timeLoss="99.76" rerouteNo="0" devices="tripinfo_9" vType="DEFAULT_VEHTYPE" speedFactor="0.86" vaporized=""/>
    <tripinfo id="23" depart="20.00" departLane="51o_0" departPos="5.10" departSpeed="0.00" departDelay="-0.47" arrival="146.00" arrivalLane="52i_1" arrivalPos="10.00" arrivalSpeed="17.25" duration="126.00" routeLength="615.10" waitingTime="79.00" waitingCount="1" stopTime="0.00" timeLoss="89.45" rerouteNo="0" devices="tripinfo_23" vType="DEFAULT_VEHTYPE" speedFactor="0.89" vaporized=""/>
    <tripinfo id="25" depart="23.00" departLane="51o_0" departPos="5.10" departSpeed="0.00" departDelay="0.75" arrival="148.00" arrivalLane="52i_1" arrivalPos="10.00" arrivalSpeed="16.89" duration="125.00" routeLength="615.10" waitingTime="75.00" waitingCount="1" stopTime="0.00" timeLoss="88.08" rerouteNo="0" devices="tripinfo_25" vType="DEFAULT_VEHTYPE" speedFactor="0.87" vaporized=""/>
    <tripinfo id="35" depart="31.00" departLane="51o_0" departPos="5.10" departSpeed="0.00" departDelay="-0.15" arrival="148.00" arrivalLane="52i_2" arrivalPos="10.00" arrivalSpeed="19.01" duration="117.00" routeLength="615.10" waitingTime="72.00" waitingCount="1" stopTime="0.00" timeLoss="85.21" rerouteNo="0" devices="tripinfo_35" vType="DEFAULT_VEHTYPE" speedFactor="1.02" vaporized=""/>
    <tripinfo id="44" depart="39.00" departLane="51o_0" departPos="5.10" departSpeed="0.00" departDelay="-0.16" arrival="148.00" arrivalLane="53i_0" arrivalPos="10.00" arrivalSpeed="20.06" duration="109.00" routeLength="596.93" waitingTime="63.00" waitingCount="1" stopTime="0.00" timeLoss="77.93" rerouteNo="0" devices="tripinfo_44" vType="DEFAULT_VEHTYPE" speedFactor="1.04" vaporized=""/>
    <tripinfo id="53" depart="47.00" departLane="51o_0" departPos="5.10" departSpeed="0.00" departDelay="-0.17" arrival="149.00" arrivalLane="52i_1" arrivalPos="10.00" arrivalSpeed="18.46" duration="102.00" routeLength="615.10" waitingTime="51.00" waitingCount="1" stopTime="0.00" timeLoss="72.96" rerouteNo="0" devices="tripinfo_53" vType="DEFAULT_VEHTYPE" speedFactor="1.10" vaporized=""/>
    <tripinfo id="54" depart="50.00" departLane="51o_0" departPos="5.10" departSpeed="0.00" departDelay="1.94" arrival="149.00" arrivalLane="52i_2" arrivalPos="10.00" arrivalSpeed="19.37" duration="99.00" routeLength="615.10" waitingTime="53.00" waitingCount="1" stopTime="0.00" timeLoss="67.31" rerouteNo="0" devices="tripinfo_54" vType="DEFAULT_VEHTYPE" speedFactor="1.00" vaporized=""/>
    <tripinfo id="68" depart="62.00" departLane="51o_0" departPos="5.10" departSpeed="0.00" departDelay="1.48" arrival="151.00" arrivalLane="52i_1" arrivalPos="10.00" arrivalSpeed="19.61" duration="89.00" routeLength="615.10" waitingTime="39.00" waitingCount="1" stopTime="0.00" timeLoss="57.88" rerouteNo="0" devices="tripinfo_68" vType="DEFAULT_VEHTYPE" speedFactor="1.04" vaporized=""/>
    <tripinfo id="76" depart="68.00" departLane="51o_0" departPos="5.10" departSpeed="0.00" departDelay="0.36" arrival="152.00" arrivalLane="52i_0" arrivalPos="10.00" arrivalSpeed="19.56" duration="84.00" routeLength="615.10" waitingTime="32.00" waitingCount="2" stopTime="0.00" timeLoss="52.50" rerouteNo="0" devices="tripinfo_76" vType="DEFAULT_VEHTYPE" speedFactor="1.03" vaporized=""/>
    <tripinfo id="98" depart="90.00" departLane="51o_0" departPos="5.10" departSpeed="0.00" departDelay="2.78" arrival="152.00" arrivalLane="52i_1" arrivalPos="10.00" arrivalSpeed="19.82" duration="62.00" routeLength="615.10" waitingTime="11.00" waitingCount="1" stopTime="0.00" timeLoss="33.67" rerouteNo="0" devices="tripinfo_98" vType="DEFAULT_VEHTYPE" speedFactor="1.12" vaporized=""/>
    <tripinfo id="85" depart="75.00" departLane="51o_0" departPos="5.10" departSpeed="0.00" departDelay="-0.65" arrival="154.00" arrivalLane="53i_0" arrivalPos="10.00" arrivalSpeed="18.43" duration="79.00" routeLength="596.93" waitingTime="30.00" waitingCount="1" stopTime="0.00" timeLoss="46.13" rerouteNo="0" devices="tripinfo_85" vType="DEFAULT_VEHTYPE" speedFactor="0.98" vaporized=""/>
    <tripinfo id="117" depart="104.00" departLane="51o_0" departPos="5.10" departSpeed="0.00" departDelay="-0.13" arrival="154.00" arrivalLane="52i_1" arrivalPos="10.00" arrivalSpeed="19.11" duration="50.00" routeLength="615.10" waitingTime="1.00" waitingCount="1" stopTime="0.00" timeLoss="17.92" rerouteNo="0" devices="tripinfo_117" vType="DEFAULT_VEHTYPE" speedFactor="1.00" vaporized=""/>
    <tripinfo id="67" depart="59.00" departLane="51o_0" departPos="5.10" departSpeed="0.00" departDelay="-0.63" arrival="155.00" arrivalLane="54i_0" arrivalPos="10.00" arrivalSpeed="17.01" duration="96.00" routeLength="617.75" waitingTime="45.00" waitingCount="1" stopTime="0.00" timeLoss="59.63" rerouteNo="0" devices="tripinfo_67" vType="DEFAULT_VEHTYPE" speedFactor="0.91" vaporized=""/>
    <tripinfo id="71" depart="65.00" departLane="51o_0" departPos="5.10" departSpeed="0.00" departDelay="1.81" arrival="156.00" arrivalLane="54i_0" arrivalPos="10.00" arrivalSpeed="18.41" duration="91.00" routeLength="617.75" waitingTime="40.00" waitingCount="1" stopTime="0.00" timeLoss="57.28" rerouteNo="0" devices="tripinfo_71" vType="DEFAULT_VEHTYPE" speedFactor="0.97" vaporized=""/>
    <tripinfo id="88" depart="78.00" departLane="51o_0" departPos="5.10" departSpeed="0.00" departDelay="-0.32" arrival="156.00" arrivalLane="53i_0" arrivalPos="10.00" arrivalSpeed="18.62" duration="78.00" routeLength="596.93" waitingTime="26.00" waitingCount="1" stopTime="0.00" timeLoss="46.27" rerouteNo="0" devices="tripinfo_88" vType="DEFAULT_VEHTYPE" speedFactor="1.01" vaporized=""/>
    <tripinfo id="89" depart="81.00" departLane="51o_0" departPos="5.10" departSpeed="0.00" departDelay="1.79" arrival="159.00" arrivalLane="53i_0" arrivalPos="10.00" arrivalSpeed="19.44" duration="78.00" routeLength="596.93" waitingTime="26.00" waitingCount="1" stopTime="0.00" timeLoss="45.92" rerouteNo="0" devices="tripinfo_89" vType="DEFAULT_VEHTYPE" speedFactor="1.02" vaporized=""/>
    <tripinfo id="94" depart="84.00" departLane="51o_0" departPos="5.10" departSpeed="0.00" departDelay="0.34" arrival="160.00" arrivalLane="53i_0" arrivalPos="10.00" arrivalSpeed="20.49" duration="76.00" routeLength="596.93" waitingTime="24.00" waitingCount="1" stopTime="0.00" timeLoss="46.99" rerouteNo="0" devices="tripinfo_94" vType="DEFAULT_VEHTYPE" speedFactor="1.09" vaporized=""/>
    <tripinfo id="97" depart="87.00" departLane="51o_0" departPos="5.10" departSpeed="0.00" departDelay="0.67" arrival="160.00" arrivalLane="54i_0" arrivalPos="10.00" arrivalSpeed="17.50" duration="73.00" routeLength="617.75" waitingTime="20.00" waitingCount="1" stopTime="0.00" timeLoss="36.79" rerouteNo="0" devices="tripinfo_97" vType="DEFAULT_VEHTYPE" speedFactor="0.91" vaporized=""/>
    <tripinfo id="102" depart="93.00" departLane="51o_0" departPos="5.10" departSpeed="0.00" departDelay="2.22" arrival="162.00" arrivalLane="54i_0" arrivalPos="10.00" arrivalSpeed="18.71" duration="69.00" routeLength="617.75" waitingTime="15.00" waitingCount="1" stopTime="0.00" timeLoss="34.56" rerouteNo="0" devices="tripinfo_102" vType="DEFAULT_VEHTYPE" speedFactor="0.97" vaporized=""/>
    <tripinfo id="137" depart="125.00" departLane="51o_0" departPos="5.10" departSpeed="0.00" departDelay="3.07" arrival="163.00" arrivalLane="52i_1" arrivalPos="10.00" arrivalSpeed="19.09" duration="38.00" routeLength="615.10" waitingTime="0.00" waitingCount="0" stopTime="0.00" timeLoss="6.78" rerouteNo="0" devices="tripinfo_137" vType="DEFAULT_VEHTYPE" speedFactor="1.02" vaporized=""/>
    <tripinfo id="106" depart="96.00" departLane="51o_0" departPos="5.10" departSpeed="0.00" departDelay="1.66" arrival="164.00" arrivalLane="53i_0" arrivalPos="10.00" arrivalSpeed="19.28" duration="68.00" routeLength="596.93" waitingTime="13.00" waitingCount="1" stopTime="0.00" timeLoss="35.70" rerouteNo="0" devices="tripinfo_106" vType="DEFAULT_VEHTYPE" speedFactor="1.01" vaporized=""/>
    <tripinfo id="126" depart="112.00" departLane="51o_0" departPos="5.10" departSpeed="0.00" departDelay="-0.14" arrival="164.00" arrivalLane="54i_0" arrivalPos="10.00" arrivalSpeed="18.89" duration="52.00" routeLength="617.75" waitingTime="0.00" waitingCount="0" stopTime="0.00" timeLoss="19.62" rerouteNo="0" devices="tripinfo_126" vType="DEFAULT_VEHTYPE" speedFactor="1.03" vaporized=""/>