<?xml version="1.0" encoding="UTF-8"?>

<!-- generated on Fri Nov  8 23:11:49 2019 by Eclipse SUMO GUI Version 1.2.0
<configuration xmlns:xsi="http://www.w3.org/2001/XMLSchema-instance" xsi:noNamespaceSchemaLocation="http://sumo.dlr.de/xsd/sumoConfiguration.xsd">

    <input>
        <net-file value="simulation_files/sumocfgs/../networks/isolated_3_lanes_4_stages.net.xml"/>
        <route-files value="simulation_files/sumocfgs/../routes/isolated_3_lanes_60p.rou.xml"/>
    </input>

    <output>
        <tripinfo-output value="./output/test_adaptive/adapt_veh_n_thp__0_tripinfo_isolated.xml"/>
    </output>

    <time>
        <begin value="0"/>
        <step-length value="1"/>
    </time>

    <report>
        <verbose value="true"/>
        <no-step-log value="true"/>
    </report>

    <gui_only>
        <tracker-interval value="1"/>
    </gui_only>

</configuration>
-->

<tripinfos xmlns:xsi="http://www.w3.org/2001/XMLSchema-instance" xsi:noNamespaceSchemaLocation="http://sumo.dlr.de/xsd/tripinfo_file.xsd">
    <tripinfo id="1" depart="1.00" departLane="54o_0" departPos="5.10" departSpeed="0.00" departDelay="-0.19" arrival="40.00" arrivalLane="53i_0" arrivalPos="10.00" arrivalSpeed="17.14" duration="39.00" routeLength="615.10" waitingTime="0.00" waitingCount="0" stopTime="0.00" timeLoss="5.09" rerouteNo="0" devices="tripinfo_1" vType="DEFAULT_VEHTYPE" speedFactor="0.94" vaporized=""/>
    <tripinfo id="0" depart="0.00" departLane="52o_0" departPos="5.10" departSpeed="0.00" departDelay="0.00" arrival="47.00" arrivalLane="53i_0" arrivalPos="10.00" arrivalSpeed="20.00" duration="47.00" routeLength="617.75" waitingTime="2.00" waitingCount="1" stopTime="0.00" timeLoss="15.40" rerouteNo="0" devices="tripinfo_0" vType="DEFAULT_VEHTYPE" speedFactor="1.06" vaporized=""/>
    <tripinfo id="5" depart="5.00" departLane="52o_0" departPos="5.10" departSpeed="0.00" departDelay="-0.95" arrival="48.00" arrivalLane="51i_0" arrivalPos="10.00" arrivalSpeed="15.86" duration="43.00" routeLength="615.10" waitingTime="0.00" waitingCount="0" stopTime="0.00" timeLoss="4.92" rerouteNo="0" devices="tripinfo_5" vType="DEFAULT_VEHTYPE" speedFactor="0.83" vaporized=""/>
    <tripinfo id="9" depart="10.00" departLane="52o_0" departPos="5.10" departSpeed="0.00" departDelay="-0.71" arrival="55.00" arrivalLane="54i_0" arrivalPos="10.00" arrivalSpeed="16.46" duration="45.00" routeLength="596.93" waitingTime="0.00" waitingCount="0" stopTime="0.00" timeLoss="7.66" rerouteNo="0" devices="tripinfo_9" vType="DEFAULT_VEHTYPE" speedFactor="0.86" vaporized=""/>
    <tripinfo id="4" depart="4.00" departLane="53o_0" departPos="5.10" departSpeed="0.00" departDelay="-0.76" arrival="61.00" arrivalLane="51i_0" arrivalPos="10.00" arrivalSpeed="19.83" duration="57.00" routeLength="617.75" waitingTime="14.00" waitingCount="1" stopTime="0.00" timeLoss="24.74" rerouteNo="0" devices="tripinfo_4" vType="DEFAULT_VEHTYPE" speedFactor="1.03" vaporized=""/>
    <tripinfo id="13" depart="15.00" departLane="53o_0" departPos="5.10" departSpeed="0.00" departDelay="-0.47" arrival="63.00" arrivalLane="51i_0" arrivalPos="10.00" arrivalSpeed="20.81" duration="48.00" routeLength="617.75" waitingTime="4.00" waitingCount="1" stopTime="0.00" timeLoss="17.93" rerouteNo="0" devices="tripinfo_13" vType="DEFAULT_VEHTYPE" speedFactor="1.12" vaporized=""/>
    <tripinfo id="20" depart="23.00" departLane="53o_0" departPos="5.10" departSpeed="0.00" departDelay="-0.80" arrival="67.00" arrivalLane="51i_0" arrivalPos="10.00" arrivalSpeed="19.57" duration="44.00" routeLength="617.75" waitingTime="0.00" waitingCount="0" stopTime="0.00" timeLoss="11.14" rerouteNo="0" devices="tripinfo_20" vType="DEFAULT_VEHTYPE" speedFactor="1.02" vaporized=""/>
    <tripinfo id="23" depart="27.00" departLane="53o_0" departPos="5.10" departSpeed="0.00" departDelay="-0.37" arrival="68.00" arrivalLane="54i_0" arrivalPos="10.00" arrivalSpeed="16.39" duration="41.00" routeLength="615.10" waitingTime="0.00" waitingCount="0" stopTime="0.00" timeLoss="5.35" rerouteNo="0" devices="tripinfo_23" vType="DEFAULT_VEHTYPE" speedFactor="0.89" vaporized=""/>
    <tripinfo id="26" depart="30.00" departLane="53o_0" departPos="5.10" departSpeed="0.00" departDelay="-0.94" arrival="74.00" arrivalLane="52i_0" arrivalPos="10.00" arrivalSpeed="16.61" duration="44.00" routeLength="596.93" waitingTime="0.00" waitingCount="0" stopTime="0.00" timeLoss="9.31" rerouteNo="0" devices="tripinfo_26" vType="DEFAULT_VEHTYPE" speedFactor="0.92" vaporized=""/>
    <tripinfo id="30" depart="35.00" departLane="53o_0" departPos="5.10" departSpeed="0.00" departDelay="-0.70" arrival="75.00" arrivalLane="52i_0" arrivalPos="10.00" arrivalSpeed="18.80" duration="40.00" routeLength="596.93" waitingTime="0.00" waitingCount="0" stopTime="0.00" timeLoss="13.33" rerouteNo="0" devices="tripinfo_30" vType="DEFAULT_VEHTYPE" speedFactor="1.18" vaporized=""/>
    <tripinfo id="31" depart="38.00" departLane="53o_0" departPos="5.10" departSpeed="0.00" departDelay="1.11" arrival="77.00" arrivalLane="52i_0" arrivalPos="10.00" arrivalSpeed="21.58" duration="39.00" routeLength="596.93" waitingTime="0.00" waitingCount="0" stopTime="0.00" timeLoss="11.45" rerouteNo="0" devices="tripinfo_31" vType="DEFAULT_VEHTYPE" speedFactor="1.15" vaporized=""/>
    <tripinfo id="32" depart="41.00" departLane="53o_0" departPos="5.10" departSpeed="0.00" departDelay="2.92" arrival="79.00" arrivalLane="54i_1" arrivalPos="10.00" arrivalSpeed="18.83" duration="38.00" routeLength="615.10" waitingTime="0.00" waitingCount="0" stopTime="0.00" timeLoss="6.04" rerouteNo="0" devices="tripinfo_32" vType="DEFAULT_VEHTYPE" speedFactor="1.01" vaporized=""/>
    <tripinfo id="37" depart="44.00" departLane="53o_0" departPos="5.10" departSpeed="0.00" departDelay="-0.03" arrival="83.00" arrivalLane="51i_0" arrivalPos="10.00" arrivalSpeed="21.94" duration="39.00" routeLength="617.75" waitingTime="0.00" waitingCount="0" stopTime="0.00" timeLoss="10.31" rerouteNo="0" devices="tripinfo_37" vType="DEFAULT_VEHTYPE" speedFactor="1.18" vaporized=""/>
    <tripinfo id="39" depart="47.00" departLane="53o_0" departPos="5.10" departSpeed="0.00" departDelay="0.59" arrival="88.00" arrivalLane="54i_0" arrivalPos="10.00" arrivalSpeed="17.00" duration="41.00" routeLength="615.10" waitingTime="0.00" waitingCount="0" stopTime="0.00" timeLoss="5.04" rerouteNo="0" devices="tripinfo_39" vType="DEFAULT_VEHTYPE" speedFactor="0.90" vaporized=""/>
    <tripinfo id="40" depart="50.00" departLane="53o_0" departPos="5.10" departSpeed="0.00" departDelay="2.40" arrival="90.00" arrivalLane="51i_0" arrivalPos="10.00" arrivalSpeed="19.68" duration="40.00" routeLength="617.75" waitingTime="0.00" waitingCount="0" stopTime="0.00" timeLoss="7.54" rerouteNo="0" devices="tripinfo_40" vType="DEFAULT_VEHTYPE" speedFactor="1.03" vaporized=""/>
    <tripinfo id="43" depart="53.00" departLane="53o_0" departPos="5.10" departSpeed="0.00" departDelay="1.83" arrival="92.00" arrivalLane="52i_0" arrivalPos="10.00" arrivalSpeed="19.05" duration="39.00" routeLength="596.93" waitingTime="0.00" waitingCount="0" stopTime="0.00" timeLoss="8.76" rerouteNo="0" devices="tripinfo_43" vType="DEFAULT_VEHTYPE" speedFactor="1.04" vaporized=""/>
    <tripinfo id="44" depart="56.00" departLane="53o_0" departPos="5.10" departSpeed="0.00" departDelay="3.64" arrival="96.00" arrivalLane="52i_0" arrivalPos="10.00" arrivalSpeed="19.63" duration="40.00" routeLength="596.93" waitingTime="0.00" waitingCount="0" stopTime="0.00" timeLoss="9.00" rerouteNo="0" devices="tripinfo_44" vType="DEFAULT_VEHTYPE" speedFactor="1.04" vaporized=""/>
    <tripinfo id="53" depart="64.00" departLane="53o_0" departPos="5.10" departSpeed="0.00" departDelay="0.93" arrival="100.00" arrivalLane="54i_0" arrivalPos="10.00" arrivalSpeed="20.32" duration="36.00" routeLength="615.10" waitingTime="0.00" waitingCount="0" stopTime="0.00" timeLoss="6.22" rerouteNo="0" devices="tripinfo_53" vType="DEFAULT_VEHTYPE" speedFactor="1.10" vaporized=""/>
    <tripinfo id="52" depart="61.00" departLane="53o_0" departPos="5.10" departSpeed="0.00" departDelay="-0.88" arrival="103.00" arrivalLane="51i_0" arrivalPos="10.00" arrivalSpeed="19.42" duration="42.00" routeLength="617.75" waitingTime="0.00" waitingCount="0" stopTime="0.00" timeLoss="9.23" rerouteNo="0" devices="tripinfo_52" vType="DEFAULT_VEHTYPE" speedFactor="1.02" vaporized=""/>
    <tripinfo id="3" depart="5.00" departLane="51o_0" departPos="5.10" departSpeed="0.00" departDelay="1.43" arrival="110.00" arrivalLane="52i_1" arrivalPos="10.00" arrivalSpeed="21.00" duration="105.00" routeLength="615.10" waitingTime="61.00" waitingCount="1" stopTime="0.00" timeLoss="75.10" rerouteNo="0" devices="tripinfo_3" vType="DEFAULT_VEHTYPE" speedFactor="1.08" vaporized=""/>
    <tripinfo id="2" depart="2.00" departLane="51o_0" departPos="5.10" departSpeed="0.00" departDelay="-0.38" arrival="111.00" arrivalLane="52i_0" arrivalPos="10.00" arrivalSpeed="19.48" duration="109.00" routeLength="615.10" waitingTime="64.00" waitingCount="1" stopTime="0.00" timeLoss="77.57" rerouteNo="0" devices="tripinfo_2" vType="DEFAULT_VEHTYPE" speedFactor="1.01" vaporized=""/>
    <tripinfo id="10" depart="12.00" departLane="51o_0" departPos="5.10" departSpeed="0.00" departDelay="0.10" arrival="112.00" arrivalLane="53i_0" arrivalPos="10.00" arrivalSpeed="20.45" duration="100.00" routeLength="596.93" waitingTime="56.00" waitingCount="1" stopTime="0.00" timeLoss="70.08" rerouteNo="0" devices="tripinfo_10" vType="DEFAULT_VEHTYPE" speedFactor="1.09" vaporized=""/>
    <tripinfo id="14" depart="18.00" departLane="51o_0" departPos="5.10" departSpeed="0.00" departDelay="1.34" arrival="112.00" arrivalLane="52i_1" arrivalPos="10.00" arrivalSpeed="18.47" duration="94.00" routeLength="615.10" waitingTime="46.00" waitingCount="1" stopTime="0.00" timeLoss="62.08" rerouteNo="0" devices="tripinfo_14" vType="DEFAULT_VEHTYPE" speedFactor="0.99" vaporized=""/>
    <tripinfo id="8" depart="9.00" departLane="51o_0" departPos="5.10" departSpeed="0.00" departDelay="-0.52" arrival="113.00" arrivalLane="54i_0" arrivalPos="10.00" arrivalSpeed="17.98" duration="104.00" routeLength="617.75" waitingTime="55.00" waitingCount="1" stopTime="0.00" timeLoss="68.62" rerouteNo="0" devices="tripinfo_8" vType="DEFAULT_VEHTYPE" speedFactor="0.94" vaporized=""/>
    <tripinfo id="34" depart="40.00" departLane="51o_0" departPos="5.10" departSpeed="0.00" departDelay="-0.46" arrival="114.00" arrivalLane="52i_1" arrivalPos="10.00" arrivalSpeed="19.27" duration="74.00" routeLength="615.10" waitingTime="26.00" waitingCount="1" stopTime="0.00" timeLoss="41.65" rerouteNo="0" devices="tripinfo_34" vType="DEFAULT_VEHTYPE" speedFactor="0.99" vaporized=""/>
    <tripinfo id="12" depart="15.00" departLane="51o_0" departPos="5.10" departSpeed="0.00" departDelay="0.72" arrival="115.00" arrivalLane="54i_0" arrivalPos="10.00" arrivalSpeed="20.02" duration="100.00" routeLength="617.75" waitingTime="51.00" waitingCount="1" stopTime="0.00" timeLoss="67.76" rerouteNo="0" devices="tripinfo_12" vType="DEFAULT_VEHTYPE" speedFactor="1.05" vaporized=""/>
    <tripinfo id="15" depart="21.00" departLane="51o_0" departPos="5.10" departSpeed="0.00" departDelay="3.15" arrival="117.00" arrivalLane="53i_0" arrivalPos="10.00" arrivalSpeed="17.51" duration="96.00" routeLength="596.93" waitingTime="48.00" waitingCount="1" stopTime="0.00" timeLoss="61.62" rerouteNo="0" devices="tripinfo_15" vType="DEFAULT_VEHTYPE" speedFactor="0.93" vaporized=""/>
    <tripinfo id="25" depart="29.00" departLane="51o_0" departPos="5.10" departSpeed="0.00" departDelay="-0.75" arrival="117.00" arrivalLane="52i_2" arrivalPos="10.00" arrivalSpeed="16.15" duration="88.00" routeLength="615.10" waitingTime="39.00" waitingCount="1" stopTime="0.00" timeLoss="51.36" rerouteNo="0" devices="tripinfo_25" vType="DEFAULT_VEHTYPE" speedFactor="0.87" vaporized=""/>
    <tripinfo id="41" depart="48.00" departLane="51o_0" departPos="5.10" departSpeed="0.00" departDelay="-0.79" arrival="117.00" arrivalLane="52i_1" arrivalPos="10.00" arrivalSpeed="16.37" duration="69.00" routeLength="615.10" waitingTime="18.00" waitingCount="1" stopTime="0.00" timeLoss="35.59" rerouteNo="0" devices="tripinfo_41" vType="DEFAULT_VEHTYPE" speedFactor="0.96" vaporized=""/>
    <tripinfo id="42" depart="51.00" departLane="51o_0" departPos="5.10" departSpeed="0.00" departDelay="1.02" arrival="119.00" arrivalLane="52i_2" arrivalPos="10.00" arrivalSpeed="20.19" duration="68.00" routeLength="615.10" waitingTime="21.00" waitingCount="1" stopTime="0.00" timeLoss="38.66" rerouteNo="0" devices="tripinfo_42" vType="DEFAULT_VEHTYPE" speedFactor="1.09" vaporized=""/>
    <tripinfo id="59" depart="70.00" departLane="51o_0" departPos="5.10" departSpeed="0.00" departDelay="-0.21" arrival="119.00" arrivalLane="52i_1" arrivalPos="10.00" arrivalSpeed="18.43" duration="49.00" routeLength="615.10" waitingTime="0.00" waitingCount="0" stopTime="0.00" timeLoss="15.51" rerouteNo="0" devices="tripinfo_59" vType="DEFAULT_VEHTYPE" speedFactor="0.97" vaporized=""/>
    <tripinfo id="61" depart="72.00" departLane="51o_0" departPos="5.10" departSpeed="0.00" departDelay="-0.59" arrival="119.00" arrivalLane="53i_0" arrivalPos="10.00" arrivalSpeed="21.71" duration="47.00" routeLength="596.93" waitingTime="0.00" waitingCount="0" stopTime="0.00" timeLoss="18.40" rerouteNo="0" devices="tripinfo_61" vType="DEFAULT_VEHTYPE" speedFactor="1.12" vaporized=""/>
    <tripinfo id="29" depart="34.00" departLane="51o_0" departPos="5.10" departSpeed="0.00" departDelay="-0.51" arrival="120.00" arrivalLane="54i_0" arrivalPos="10.00" arrivalSpeed="17.33" duration="86.00" routeLength="617.75" waitingTime="34.00" waitingCount="1" stopTime="0.00" timeLoss="50.28" rerouteNo="0" devices="tripinfo_29" vType="DEFAULT_VEHTYPE" speedFactor="0.93" vaporized=""/>
    <tripinfo id="50" depart="59.00" departLane="51o_0" departPos="5.10" departSpeed="0.00" departDelay="-0.50" arrival="126.00" arrivalLane="54i_0" arrivalPos="10.00" arrivalSpeed="16.50" duration="67.00" routeLength="617.75" waitingTime="13.00" waitingCount="1" stopTime="0.00" timeLoss="28.59" rerouteNo="0" devices="tripinfo_50" vType="DEFAULT_VEHTYPE" speedFactor="0.85" vaporized=""/>
    <tripinfo id="69" depart="82.00" departLane="51o_0" departPos="5.10" departSpeed="0.00" departDelay="-0.11" arrival="128.00" arrivalLane="54i_0" arrivalPos="10.00" arrivalSpeed="19.76" duration="46.00" routeLength="617.75" waitingTime="0.00" waitingCount="0" stopTime="0.00" timeLoss="13.41" rerouteNo="0" devices="tripinfo_69" vType="DEFAULT_VEHTYPE" speedFactor="1.02" vaporized=""/>
    <tripinfo id="70" depart="85.00" departLane="51o_0" departPos="5.10" departSpeed="0.00" departDelay="1.70" arrival="130.00" arrivalLane="54i_0" arrivalPos="10.00" arrivalSpeed="18.71" duration="45.00" routeLength="617.75" waitingTime="0.00" waitingCount="0" stopTime="0.00" timeLoss="12.01" rerouteNo="0" devices="tripinfo_70" vType="DEFAULT_VEHTYPE" speedFactor="1.02" vaporized=""/>
    <tripinfo id="74" depart="88.00" departLane="51o_0" departPos="5.10" departSpeed="0.00" departDelay="-0.06" arrival="133.00" arrivalLane="54i_0" arrivalPos="10.00" arrivalSpeed="18.16" duration="45.00" routeLength="617.75" waitingTime="0.00" waitingCount="0" stopTime="0.00" timeLoss="9.82" rerouteNo="0" devices="tripinfo_74" vType="DEFAULT_VEHTYPE" speedFactor="0.96" vaporized=""/>
    <tripinfo id="76" depart="91.00" departLane="51o_0" departPos="5.10" departSpeed="0.00" departDelay="0.56" arrival="134.00" arrivalLane="54i_0" arrivalPos="10.00" arrivalSpeed="18.86" duration="43.00" routeLength="617.75" waitingTime="0.00" waitingCount="0" stopTime="0.00" timeLoss="11.02" rerouteNo="0" devices="tripinfo_76" vType="DEFAULT_VEHTYPE" speedFactor="1.03" vaporized=""/>
    <tripinfo id="95" depart="113.00" departLane="51o_0" departPos="5.10" departSpeed="0.00" departDelay="-0.05" arrival="153.00" arrivalLane="53i_0" arrivalPos="10.00" arrivalSpeed="20.48" duration="40.00" routeLength="596.93" waitingTime="0.00" waitingCount="0" stopTime="0.00" timeLoss="9.54" rerouteNo="0" devices="tripinfo_95" vType="DEFAULT_VEHTYPE" speedFactor="1.06" vaporized=""/>
    <tripinfo id="99" depart="119.00" departLane="51o_0" departPos="5.10" departSpeed="0.00" departDelay="1.19" arrival="158.00" arrivalLane="53i_0" arrivalPos="10.00" arrivalSpeed="20.14" duration="39.00" routeLength="596.93" waitingTime="0.00" waitingCount="0" stopTime="0.00" timeLoss="9.22" rerouteNo="0" devices="tripinfo_99" vType="DEFAULT_VEHTYPE" speedFactor="1.10" vaporized=""/>
    <tripinfo id="97" depart="116.00" departLane="51o_0" departPos="5.10" departSpeed="0.00" departDelay="0.57" arrival="160.00" arrivalLane="54i_0" arrivalPos="10.00" arrivalSpeed="16.72" duration="44.00" routeLength="617.75" waitingTime="0.00" waitingCount="0" stopTime="0.00" timeLoss="7.20" rerouteNo="0" devices="tripinfo_97" vType="DEFAULT_VEHTYPE" speedFactor="0.91" vaporized=""/>
    <tripinfo id="103" depart="122.00" departLane="51o_0" departPos="5.10" departSpeed="0.00" departDelay="-0.57" arrival="164.00" arrivalLane="53i_0" arrivalPos="10.00" arrivalSpeed="17.56" duration="42.00" routeLength="596.93" waitingTime="0.00" waitingCount="0" stopTime="0.00" timeLoss="8.45" rerouteNo="0" devices="tripinfo_103" vType="DEFAULT_VEHTYPE" speedFactor="0.95" vaporized=""/>
    <tripinfo id="106" depart="126.00" departLane="51o_0" departPos="5.10" departSpeed="0.00" departDelay="-0.14" arrival="168.00" arrivalLane="54i_0" arrivalPos="10.00" arrivalSpeed="18.93" duration="42.00" routeLength="617.75" waitingTime="0.00" waitingCount="0" stopTime="0.00" timeLoss="8.78" rerouteNo="0" devices="tripinfo_106" vType="DEFAULT_VEHTYPE" speedFactor="1.01" vaporized=""/>
    <tripinfo id="107" depart="129.00" departLane="51o_0" departPos="5.10" departSpeed="0.00" departDelay="1.67" arrival="170.00" arrivalLane="54i_0" arrivalPos="10.00" arrivalSpeed="19.17" duration="41.00" routeLength="617.75" waitingTime="0.00" waitingCount="0" stopTime="0.00" timeLoss="9.14" rerouteNo="0" devices="tripinfo_107" vType="DEFAULT_VEHTYPE" speedFactor="1.03" vaporized=""/>
    <tripinfo id="108" depart="132.00" departLane="51o_0" departPos="5.10" departSpeed="0.00" departDelay="3.48" arrival="171.00" arrivalLane="53i_0" arrivalPos="10.00" arrivalSpeed="20.03" duration="39.00" routeLength="596.93" waitingTime="0.00" waitingCount="0" stopTime="0.00" timeLoss="9.37" rerouteNo="0" devices="tripinfo_108" vType="DEFAULT_VEHTYPE" speedFactor="1.06" vaporized=""/>
    <tripinfo id="116" depart="138.00" departLane="51o_0" departPos="5.10" departSpeed="0.00" departDelay="-0.04" arrival="171.00" arrivalLane="52i_0" arrivalPos="10.00" arrivalSpeed="22.86" duration="33.00" routeLength="615.10" waitingTime="0.00" waitingCount="0" stopTime="0.00" timeLoss="5.98" rerouteNo="0" devices="tripinfo_116" vType="DEFAULT_VEHTYPE" speedFactor="1.18" vaporized=""/>
    <tripinfo id="6" depart="7.00" departLane="54o_0" departPos="5.10" departSpeed="0.00" departDelay="-0.14" arrival="182.00" arrivalLane="53i_0" arrivalPos="10.00" arrivalSpeed="19.58" duration="175.00" routeLength="615.10" waitingTime="130.00" waitingCount="1" stopTime="0.00" timeLoss="144.68" rerouteNo="0" devices="tripinfo_6" vType="DEFAULT_VEHTYPE" speedFactor="1.05" vaporized=""/>
    <tripinfo id="11" depart="15.00" departLane="4i_0" departPos="5.10" departSpeed="0.00" departDelay="1.91" arrival="182.00" arrivalLane="52i_0" arrivalPos="10.00" arrivalSpeed="19.84" duration="167.00" routeLength="607.65" waitingTime="122.00" waitingCount="1" stopTime="0.00" timeLoss="135.14" rerouteNo="0" devices="tripinfo_11" vType="DEFAULT_VEHTYPE" speedFactor="1.03" vaporized=""/>
    <tripinfo id="19" depart="22.00" departLane="54o_0" departPos="5.10" departSpeed="0.00" departDelay="-0.61" arrival="182.00" arrivalLane="53i_2" arrivalPos="10.00" arrivalSpeed="17.33" duration="160.00" routeLength="615.10" waitingTime="118.00" waitingCount="1" stopTime="0.00" timeLoss="132.54" rerouteNo="0" devices="tripinfo_19" vType="DEFAULT_VEHTYPE" speedFactor="1.16" vaporized=""/>
    <tripinfo id="16" depart="19.00" departLane="54o_0" departPos="5.10" departSpeed="0.00" departDelay="-0.04" arrival="184.00" arrivalLane="53i_0" arrivalPos="10.00" arrivalSpeed="16.65" duration="165.00" routeLength="615.10" waitingTime="115.00" waitingCount="1" stopTime="0.00" timeLoss="128.32" rerouteNo="0" devices="tripinfo_16" vType="DEFAULT_VEHTYPE" speedFactor="0.88" vaporized=""/>
    <tripinfo id="21" depart="25.00" departLane="54o_0" departPos="5.10" departSpeed="0.00" departDelay="0.01" arrival="185.00" arrivalLane="53i_1" arrivalPos="10.00" arrivalSpeed="19.18" duration="160.00" routeLength="615.10" waitingTime="110.00" waitingCount="1" stopTime="0.00" timeLoss="128.03" rerouteNo="0" devices="tripinfo_21" vType="DEFAULT_VEHTYPE" speedFactor="1.01" vaporized=""/>
    <tripinfo id="7" depart="10.00" departLane="54o_0" departPos="5.10" departSpeed="0.00" departDelay="1.67" arrival="186.00" arrivalLane="51i_0" arrivalPos="10.00" arrivalSpeed="16.29" duration="176.00" routeLength="596.93" waitingTime="126.00" waitingCount="1" stopTime="0.00" timeLoss="140.22" rerouteNo="0" devices="tripinfo_7" vType="DEFAULT_VEHTYPE" speedFactor="0.89" vaporized=""/>
    <tripinfo id="22" depart="28.00" departLane="54o_0" departPos="5.10" departSpeed="0.00" departDelay="1.82" arrival="186.00" arrivalLane="53i_2" arrivalPos="10.00" arrivalSpeed="18.72" duration="158.00" routeLength="615.10" waitingTime="112.00" waitingCount="1" stopTime="0.00" timeLoss="124.95" rerouteNo="0" devices="tripinfo_22" vType="DEFAULT_VEHTYPE" speedFactor="0.98" vaporized=""/>
    <tripinfo id="35" depart="42.00" departLane="54o_0" departPos="5.10" departSpeed="0.00" departDelay="0.35" arrival="187.00" arrivalLane="53i_1" arrivalPos="10.00" arrivalSpeed="18.63" duration="145.00" routeLength="615.10" waitingTime="95.00" waitingCount="1" stopTime="0.00" timeLoss="113.27" rerouteNo="0" devices="tripinfo_35" vType="DEFAULT_VEHTYPE" speedFactor="1.02" vaporized=""/>
    <tripinfo id="33" depart="39.00" departLane="54o_0" departPos="5.10" departSpeed="0.00" departDelay="-0.27" arrival="188.00" arrivalLane="52i_0" arrivalPos="10.00" arrivalSpeed="22.71" duration="149.00" routeLength="617.75" waitingTime="103.00" waitingCount="1" stopTime="0.00" timeLoss="120.41" rerouteNo="0" devices="tripinfo_33" vType="DEFAULT_VEHTYPE" speedFactor="1.17" vaporized=""/>
    <tripinfo id="75" depart="89.00" departLane="54o_0" departPos="5.10" departSpeed="0.00" departDelay="-0.25" arrival="188.00" arrivalLane="53i_1" arrivalPos="10.00" arrivalSpeed="18.98" duration="99.00" routeLength="615.10" waitingTime="48.00" waitingCount="1" stopTime="0.00" timeLoss="66.74" rerouteNo="0" devices="tripinfo_75" vType="DEFAULT_VEHTYPE" speedFactor="0.98" vaporized=""/>
    <tripinfo id="24" depart="31.00" departLane="54o_0" departPos="5.10" departSpeed="0.00" departDelay="2.44" arrival="190.00" arrivalLane="51i_0" arrivalPos="10.00" arrivalSpeed="15.88" duration="159.00" routeLength="596.93" waitingTime="106.00" waitingCount="1" stopTime="0.00" timeLoss="120.28" rerouteNo="0" devices="tripinfo_24" vType="DEFAULT_VEHTYPE" speedFactor="0.83" vaporized=""/>
    <tripinfo id="91" depart="112.00" departLane="54o_0" departPos="5.10" departSpeed="0.00" departDelay="3.71" arrival="191.00" arrivalLane="53i_1" arrivalPos="10.00" arrivalSpeed="16.60" duration="79.00" routeLength="615.10" waitingTime="26.00" waitingCount="1" stopTime="0.00" timeLoss="43.39" rerouteNo="0" devices="tripinfo_91" vType="DEFAULT_VEHTYPE" speedFactor="0.89" vaporized=""/>
    <tripinfo id="36" depart="45.00" departLane="54o_0" departPos="5.10" departSpeed="0.00" departDelay="2.16" arrival="192.00" arrivalLane="52i_0" arrivalPos="10.00" arrivalSpeed="18.70" duration="147.00" routeLength="617.75" waitingTime="98.00" waitingCount="1" stopTime="0.00" timeLoss="112.88" rerouteNo="0" devices="tripinfo_36" vType="DEFAULT_VEHTYPE" speedFactor="0.97" vaporized=""/>
    <tripinfo id="49" depart="60.00" departLane="54o_0" departPos="5.10" departSpeed="0.00" departDelay="1.69" arrival="193.00" arrivalLane="53i_0" arrivalPos="10.00" arrivalSpeed="16.10" duration="133.00" routeLength="615.10" waitingTime="79.00" waitingCount="1" stopTime="0.00" timeLoss="95.11" rerouteNo="0" devices="tripinfo_49" vType="DEFAULT_VEHTYPE" speedFactor="0.85" vaporized=""/>
    <tripinfo id="100" depart="119.00" departLane="54o_0" departPos="5.10" departSpeed="0.00" departDelay="0.00" arrival="193.00" arrivalLane="53i_1" arrivalPos="10.00" arrivalSpeed="19.64" duration="74.00" routeLength="615.10" waitingTime="24.00" waitingCount="1" stopTime="0.00" timeLoss="43.58" rerouteNo="0" devices="tripinfo_100" vType="DEFAULT_VEHTYPE" speedFactor="1.07" vaporized=""/>
    <tripinfo id="38" depart="48.00" departLane="54o_0" departPos="5.10" departSpeed="0.00" departDelay="2.78" arrival="194.00" arrivalLane="52i_0" arrivalPos="10.00" arrivalSpeed="21.39" duration="146.00" routeLength="617.75" waitingTime="96.00" waitingCount="1" stopTime="0.00" timeLoss="115.66" rerouteNo="0" devices="tripinfo_38" vType="DEFAULT_VEHTYPE" speedFactor="1.10" vaporized=""/>
    <tripinfo id="56" depart="66.00" departLane="54o_0" departPos="5.10" departSpeed="0.00" departDelay="-0.64" arrival="194.00" arrivalLane="51i_0" arrivalPos="10.00" arrivalSpeed="16.44" duration="128.00" routeLength="596.93" waitingTime="75.00" waitingCount="1" stopTime="0.00" timeLoss="92.72" rerouteNo="0" devices="tripinfo_56" vType="DEFAULT_VEHTYPE" speedFactor="0.90" vaporized=""/>
    <tripinfo id="102" depart="125.00" departLane="54o_0" departPos="5.10" departSpeed="0.00" departDelay="3.62" arrival="194.00" arrivalLane="53i_1" arrivalPos="10.00" arrivalSpeed="18.04" duration="69.00" routeLength="615.10" waitingTime="18.00" waitingCount="1" stopTime="0.00" timeLoss="36.27" rerouteNo="0" devices="tripinfo_102" vType="DEFAULT_VEHTYPE" speedFactor="0.97" vaporized=""/>
    <tripinfo id="45" depart="53.00" departLane="54o_0" departPos="5.10" departSpeed="0.00" departDelay="-0.55" arrival="195.00" arrivalLane="52i_0" arrivalPos="10.00" arrivalSpeed="19.88" duration="142.00" routeLength="617.75" waitingTime="92.00" waitingCount="1" stopTime="0.00" timeLoss="111.78" rerouteNo="0" devices="tripinfo_45" vType="DEFAULT_VEHTYPE" speedFactor="1.09" vaporized=""/>
    <tripinfo id="72" depart="85.00" departLane="54o_0" departPos="5.10" departSpeed="0.00" departDelay="-0.68" arrival="196.00" arrivalLane="51i_0" arrivalPos="10.00" arrivalSpeed="18.04" duration="111.00" routeLength="596.93" waitingTime="59.00" waitingCount="1" stopTime="0.00" timeLoss="76.39" rerouteNo="0" devices="tripinfo_72" vType="DEFAULT_VEHTYPE" speedFactor="0.94" vaporized=""/>
    <tripinfo id="101" depart="122.00" departLane="54o_0" departPos="5.10" departSpeed="0.00" departDelay="1.81" arrival="196.00" arrivalLane="53i_1" arrivalPos="10.00" arrivalSpeed="17.62" duration="74.00" routeLength="615.10" waitingTime="19.00" waitingCount="2" stopTime="0.00" timeLoss="40.50" rerouteNo="0" devices="tripinfo_101" vType="DEFAULT_VEHTYPE" speedFactor="0.96" vaporized=""/>
    <tripinfo id="119" depart="143.00" departLane="54o_0" departPos="5.10" departSpeed="0.00" departDelay="1.39" arrival="197.00" arrivalLane="53i_1" arrivalPos="10.00" arrivalSpeed="19.98" duration="54.00" routeLength="615.10" waitingTime="3.00" waitingCount="1" stopTime="0.00" timeLoss="24.44" rerouteNo="0" devices="tripinfo_119" vType="DEFAULT_VEHTYPE" speedFactor="1.07" vaporized=""/>
    <tripinfo id="83" depart="98.00" departLane="54o_0" departPos="5.10" departSpeed="0.00" departDelay="-0.77" arrival="198.00" arrivalLane="51i_0" arrivalPos="10.00" arrivalSpeed="18.72" duration="100.00" routeLength="596.93" waitingTime="49.00" waitingCount="1" stopTime="0.00" timeLoss="66.83" rerouteNo="0" devices="tripinfo_83" vType="DEFAULT_VEHTYPE" speedFactor="0.97" vaporized=""/>
    <tripinfo id="120" depart="146.00" departLane="54o_0" departPos="5.10" departSpeed="0.00" departDelay="3.20" arrival="199.00" arrivalLane="53i_1" arrivalPos="10.00" arrivalSpeed="18.08" duration="53.00" routeLength="615.10" waitingTime="0.00" waitingCount="0" stopTime="0.00" timeLoss="19.22" rerouteNo="0" devices="tripinfo_120" vType="DEFAULT_VEHTYPE" speedFactor="0.94" vaporized=""/>
    <tripinfo id="84" depart="101.00" departLane="54o_0" departPos="5.10" departSpeed="0.00" departDelay="1.04" arrival="200.00" arrivalLane="51i_0" arrivalPos="10.00" arrivalSpeed="20.24" duration="99.00" routeLength="596.93" waitingTime="47.00" waitingCount="1" stopTime="0.00" timeLoss="71.11" rerouteNo="0" devices="tripinfo_84" vType="DEFAULT_VEHTYPE" speedFactor="1.15" vaporized=""/>
    <tripinfo id="48" depart="57.00" departLane="54o_0" departPos="5.10" departSpeed="0.00" departDelay="-0.12" arrival="202.00" arrivalLane="52i_0" arrivalPos="10.00" arrivalSpeed="17.00" duration="145.00" routeLength="617.75" waitingTime="88.00" waitingCount="1" stopTime="0.00" timeLoss="107.37" rerouteNo="0" devices="tripinfo_48" vType="DEFAULT_VEHTYPE" speedFactor="0.88" vaporized=""/>
    <tripinfo id="86" depart="104.00" departLane="54o_0" departPos="5.10" departSpeed="0.00" departDelay="1.66" arrival="203.00" arrivalLane="51i_0" arrivalPos="10.00" arrivalSpeed="18.28" duration="99.00" routeLength="596.93" waitingTime="45.00" waitingCount="1" stopTime="0.00" timeLoss="66.52" rerouteNo="0" devices="tripinfo_86" vType="DEFAULT_VEHTYPE" speedFactor="1.00" vaporized=""/>
    <tripinfo id="87" depart="107.00" departLane="54o_0" departPos="5.10" departSpeed="0.00" departDelay="3.47" arrival="204.00" arrivalLane="52i_0" arrivalPos="10.00" arrivalSpeed="19.42" duration="97.00" routeLength="617.75" waitingTime="41.00" waitingCount="1" stopTime="0.00" timeLoss="64.87" rerouteNo="0" devices="tripinfo_87" vType="DEFAULT_VEHTYPE" speedFactor="1.04" vaporized=""/>