<?xml version="1.0" encoding="UTF-8"?>

<!-- generated on Fri Nov  8 03:18:46 2019 by Eclipse SUMO Version 1.2.0
<configuration xmlns:xsi="http://www.w3.org/2001/XMLSchema-instance" xsi:noNamespaceSchemaLocation="http://sumo.dlr.de/xsd/sumoConfiguration.xsd">

    <input>
        <net-file value="simulation_files/sumocfgs/../networks/isolated_3_lanes_4_stages.net.xml"/>
        <route-files value="simulation_files/sumocfgs/../routes/isolated_3_lanes_60p.rou.xml"/>
    </input>

    <output>
        <tripinfo-output value="./output/exp21_rf_60p/delay__7_tripinfo_isolated.xml"/>
    </output>

    <time>
        <begin value="0"/>
        <step-length value="1"/>
    </time>

    <report>
        <verbose value="true"/>
        <no-step-log value="true"/>
    </report>

    <gui_only>
        <tracker-interval value="1"/>
    </gui_only>

</configuration>
-->

<tripinfos xmlns:xsi="http://www.w3.org/2001/XMLSchema-instance" xsi:noNamespaceSchemaLocation="http://sumo.dlr.de/xsd/tripinfo_file.xsd">
    <tripinfo id="1" depart="1.00" departLane="54o_0" departPos="5.10" departSpeed="0.00" departDelay="-0.19" arrival="40.00" arrivalLane="53i_0" arrivalPos="10.00" arrivalSpeed="17.14" duration="39.00" routeLength="615.10" waitingTime="0.00" waitingCount="0" stopTime="0.00" timeLoss="5.09" rerouteNo="0" devices="tripinfo_1" vType="DEFAULT_VEHTYPE" speedFactor="0.94" vaporized=""/>
    <tripinfo id="0" depart="0.00" departLane="52o_0" departPos="5.10" departSpeed="0.00" departDelay="0.00" arrival="47.00" arrivalLane="53i_0" arrivalPos="10.00" arrivalSpeed="20.00" duration="47.00" routeLength="617.75" waitingTime="2.00" waitingCount="1" stopTime="0.00" timeLoss="15.40" rerouteNo="0" devices="tripinfo_0" vType="DEFAULT_VEHTYPE" speedFactor="1.06" vaporized=""/>
    <tripinfo id="5" depart="5.00" departLane="52o_0" departPos="5.10" departSpeed="0.00" departDelay="-0.95" arrival="49.00" arrivalLane="51i_0" arrivalPos="10.00" arrivalSpeed="15.14" duration="44.00" routeLength="615.10" waitingTime="0.00" waitingCount="0" stopTime="0.00" timeLoss="5.00" rerouteNo="0" devices="tripinfo_5" vType="DEFAULT_VEHTYPE" speedFactor="0.83" vaporized=""/>
    <tripinfo id="9" depart="10.00" departLane="52o_0" departPos="5.10" departSpeed="0.00" departDelay="-0.71" arrival="55.00" arrivalLane="54i_0" arrivalPos="10.00" arrivalSpeed="16.48" duration="45.00" routeLength="596.93" waitingTime="0.00" waitingCount="0" stopTime="0.00" timeLoss="7.78" rerouteNo="0" devices="tripinfo_9" vType="DEFAULT_VEHTYPE" speedFactor="0.86" vaporized=""/>
    <tripinfo id="17" depart="20.00" departLane="52o_0" departPos="5.10" departSpeed="0.00" departDelay="-0.23" arrival="64.00" arrivalLane="53i_0" arrivalPos="10.00" arrivalSpeed="17.02" duration="44.00" routeLength="617.75" waitingTime="0.00" waitingCount="0" stopTime="0.00" timeLoss="8.82" rerouteNo="0" devices="tripinfo_17" vType="DEFAULT_VEHTYPE" speedFactor="0.94" vaporized=""/>
    <tripinfo id="18" depart="23.00" departLane="52o_0" departPos="5.10" departSpeed="0.00" departDelay="1.58" arrival="66.00" arrivalLane="53i_0" arrivalPos="10.00" arrivalSpeed="17.45" duration="43.00" routeLength="617.75" waitingTime="0.00" waitingCount="0" stopTime="0.00" timeLoss="7.41" rerouteNo="0" devices="tripinfo_18" vType="DEFAULT_VEHTYPE" speedFactor="0.94" vaporized=""/>
    <tripinfo id="27" depart="32.00" departLane="52o_0" departPos="5.10" departSpeed="0.00" departDelay="-0.13" arrival="70.00" arrivalLane="51i_0" arrivalPos="10.00" arrivalSpeed="18.00" duration="38.00" routeLength="615.10" waitingTime="0.00" waitingCount="0" stopTime="0.00" timeLoss="4.64" rerouteNo="0" devices="tripinfo_27" vType="DEFAULT_VEHTYPE" speedFactor="0.95" vaporized=""/>
    <tripinfo id="28" depart="35.00" departLane="52o_0" departPos="5.10" departSpeed="0.00" departDelay="1.68" arrival="74.00" arrivalLane="54i_0" arrivalPos="10.00" arrivalSpeed="21.50" duration="39.00" routeLength="596.93" waitingTime="0.00" waitingCount="0" stopTime="0.00" timeLoss="10.58" rerouteNo="0" devices="tripinfo_28" vType="DEFAULT_VEHTYPE" speedFactor="1.13" vaporized=""/>
    <tripinfo id="46" depart="54.00" departLane="52o_0" departPos="5.10" departSpeed="0.00" departDelay="-0.74" arrival="96.00" arrivalLane="53i_0" arrivalPos="10.00" arrivalSpeed="19.34" duration="42.00" routeLength="617.75" waitingTime="0.00" waitingCount="0" stopTime="0.00" timeLoss="8.49" rerouteNo="0" devices="tripinfo_46" vType="DEFAULT_VEHTYPE" speedFactor="1.00" vaporized=""/>
    <tripinfo id="47" depart="57.00" departLane="52o_0" departPos="5.10" departSpeed="0.00" departDelay="1.07" arrival="98.00" arrivalLane="51i_0" arrivalPos="10.00" arrivalSpeed="16.82" duration="41.00" routeLength="615.10" waitingTime="0.00" waitingCount="0" stopTime="0.00" timeLoss="5.68" rerouteNo="0" devices="tripinfo_47" vType="DEFAULT_VEHTYPE" speedFactor="0.90" vaporized=""/>
    <tripinfo id="51" depart="60.00" departLane="52o_0" departPos="5.10" departSpeed="0.00" departDelay="-0.69" arrival="99.00" arrivalLane="54i_0" arrivalPos="10.00" arrivalSpeed="21.50" duration="39.00" routeLength="596.93" waitingTime="0.00" waitingCount="0" stopTime="0.00" timeLoss="11.96" rerouteNo="0" devices="tripinfo_51" vType="DEFAULT_VEHTYPE" speedFactor="1.17" vaporized=""/>
    <tripinfo id="4" depart="4.00" departLane="53o_0" departPos="5.10" departSpeed="0.00" departDelay="-0.76" arrival="109.00" arrivalLane="51i_0" arrivalPos="10.00" arrivalSpeed="20.01" duration="105.00" routeLength="617.75" waitingTime="62.00" waitingCount="1" stopTime="0.00" timeLoss="72.83" rerouteNo="0" devices="tripinfo_4" vType="DEFAULT_VEHTYPE" speedFactor="1.03" vaporized=""/>
    <tripinfo id="32" depart="41.00" departLane="53o_0" departPos="5.10" departSpeed="0.00" departDelay="2.92" arrival="109.00" arrivalLane="54i_0" arrivalPos="10.00" arrivalSpeed="19.49" duration="68.00" routeLength="615.10" waitingTime="22.00" waitingCount="1" stopTime="0.00" timeLoss="36.08" rerouteNo="0" devices="tripinfo_32" vType="DEFAULT_VEHTYPE" speedFactor="1.01" vaporized=""/>
    <tripinfo id="13" depart="15.00" departLane="53o_0" departPos="5.10" departSpeed="0.00" departDelay="-0.47" arrival="111.00" arrivalLane="51i_0" arrivalPos="10.00" arrivalSpeed="21.61" duration="96.00" routeLength="617.75" waitingTime="52.00" waitingCount="1" stopTime="0.00" timeLoss="65.82" rerouteNo="0" devices="tripinfo_13" vType="DEFAULT_VEHTYPE" speedFactor="1.12" vaporized=""/>
    <tripinfo id="23" depart="27.00" departLane="53o_0" departPos="5.10" departSpeed="0.00" departDelay="-0.37" arrival="111.00" arrivalLane="54i_0" arrivalPos="10.00" arrivalSpeed="16.31" duration="84.00" routeLength="615.10" waitingTime="36.00" waitingCount="1" stopTime="0.00" timeLoss="47.92" rerouteNo="0" devices="tripinfo_23" vType="DEFAULT_VEHTYPE" speedFactor="0.89" vaporized=""/>
    <tripinfo id="39" depart="47.00" departLane="53o_0" departPos="5.10" departSpeed="0.00" departDelay="0.59" arrival="112.00" arrivalLane="54i_1" arrivalPos="10.00" arrivalSpeed="17.27" duration="65.00" routeLength="615.10" waitingTime="19.00" waitingCount="1" stopTime="0.00" timeLoss="29.62" rerouteNo="0" devices="tripinfo_39" vType="DEFAULT_VEHTYPE" speedFactor="0.90" vaporized=""/>
    <tripinfo id="26" depart="30.00" departLane="53o_0" departPos="5.10" departSpeed="0.00" departDelay="-0.94" arrival="113.00" arrivalLane="52i_0" arrivalPos="10.00" arrivalSpeed="16.61" duration="83.00" routeLength="596.93" waitingTime="35.00" waitingCount="1" stopTime="0.00" timeLoss="47.73" rerouteNo="0" devices="tripinfo_26" vType="DEFAULT_VEHTYPE" speedFactor="0.92" vaporized=""/>
    <tripinfo id="30" depart="35.00" departLane="53o_0" departPos="5.10" departSpeed="0.00" departDelay="-0.70" arrival="114.00" arrivalLane="52i_0" arrivalPos="10.00" arrivalSpeed="19.48" duration="79.00" routeLength="596.93" waitingTime="32.00" waitingCount="1" stopTime="0.00" timeLoss="52.27" rerouteNo="0" devices="tripinfo_30" vType="DEFAULT_VEHTYPE" speedFactor="1.18" vaporized=""/>
    <tripinfo id="53" depart="64.00" departLane="53o_0" departPos="5.10" departSpeed="0.00" departDelay="0.93" arrival="114.00" arrivalLane="54i_1" arrivalPos="10.00" arrivalSpeed="20.01" duration="50.00" routeLength="615.10" waitingTime="0.00" waitingCount="0" stopTime="0.00" timeLoss="20.41" rerouteNo="0" devices="tripinfo_53" vType="DEFAULT_VEHTYPE" speedFactor="1.10" vaporized=""/>
    <tripinfo id="20" depart="23.00" departLane="53o_0" departPos="5.10" departSpeed="0.00" departDelay="-0.80" arrival="115.00" arrivalLane="51i_0" arrivalPos="10.00" arrivalSpeed="18.80" duration="92.00" routeLength="617.75" waitingTime="44.00" waitingCount="1" stopTime="0.00" timeLoss="59.16" rerouteNo="0" devices="tripinfo_20" vType="DEFAULT_VEHTYPE" speedFactor="1.02" vaporized=""/>
    <tripinfo id="54" depart="67.00" departLane="53o_0" departPos="5.10" departSpeed="0.00" departDelay="2.74" arrival="115.00" arrivalLane="54i_1" arrivalPos="10.00" arrivalSpeed="18.36" duration="48.00" routeLength="615.10" waitingTime="0.00" waitingCount="0" stopTime="0.00" timeLoss="16.36" rerouteNo="0" devices="tripinfo_54" vType="DEFAULT_VEHTYPE" speedFactor="1.00" vaporized=""/>
    <tripinfo id="31" depart="38.00" departLane="53o_0" departPos="5.10" departSpeed="0.00" departDelay="1.11" arrival="116.00" arrivalLane="52i_0" arrivalPos="10.00" arrivalSpeed="20.67" duration="78.00" routeLength="596.93" waitingTime="30.00" waitingCount="1" stopTime="0.00" timeLoss="49.58" rerouteNo="0" devices="tripinfo_31" vType="DEFAULT_VEHTYPE" speedFactor="1.15" vaporized=""/>
    <tripinfo id="37" depart="44.00" departLane="53o_0" departPos="5.10" departSpeed="0.00" departDelay="-0.03" arrival="117.00" arrivalLane="51i_0" arrivalPos="10.00" arrivalSpeed="22.58" duration="73.00" routeLength="617.75" waitingTime="25.00" waitingCount="1" stopTime="0.00" timeLoss="44.36" rerouteNo="0" devices="tripinfo_37" vType="DEFAULT_VEHTYPE" speedFactor="1.18" vaporized=""/>
    <tripinfo id="60" depart="76.00" departLane="53o_0" departPos="5.10" departSpeed="0.00" departDelay="4.60" arrival="117.00" arrivalLane="54i_1" arrivalPos="10.00" arrivalSpeed="20.78" duration="41.00" routeLength="615.10" waitingTime="0.00" waitingCount="0" stopTime="0.00" timeLoss="11.12" rerouteNo="0" devices="tripinfo_60" vType="DEFAULT_VEHTYPE" speedFactor="1.08" vaporized=""/>
    <tripinfo id="43" depart="53.00" departLane="53o_0" departPos="5.10" departSpeed="0.00" departDelay="1.83" arrival="118.00" arrivalLane="52i_0" arrivalPos="10.00" arrivalSpeed="19.01" duration="65.00" routeLength="596.93" waitingTime="17.00" waitingCount="1" stopTime="0.00" timeLoss="34.04" rerouteNo="0" devices="tripinfo_43" vType="DEFAULT_VEHTYPE" speedFactor="1.04" vaporized=""/>
    <tripinfo id="62" depart="79.00" departLane="53o_0" departPos="5.10" departSpeed="0.00" departDelay="5.22" arrival="118.00" arrivalLane="54i_1" arrivalPos="10.00" arrivalSpeed="19.23" duration="39.00" routeLength="615.10" waitingTime="0.00" waitingCount="0" stopTime="0.00" timeLoss="7.82" rerouteNo="0" devices="tripinfo_62" vType="DEFAULT_VEHTYPE" speedFactor="1.02" vaporized=""/>
    <tripinfo id="40" depart="50.00" departLane="53o_0" departPos="5.10" departSpeed="0.00" departDelay="2.40" arrival="120.00" arrivalLane="51i_0" arrivalPos="10.00" arrivalSpeed="19.64" duration="70.00" routeLength="617.75" waitingTime="20.00" waitingCount="1" stopTime="0.00" timeLoss="37.39" rerouteNo="0" devices="tripinfo_40" vType="DEFAULT_VEHTYPE" speedFactor="1.03" vaporized=""/>
    <tripinfo id="44" depart="56.00" departLane="53o_0" departPos="5.10" departSpeed="0.00" departDelay="3.64" arrival="121.00" arrivalLane="52i_0" arrivalPos="10.00" arrivalSpeed="20.23" duration="65.00" routeLength="596.93" waitingTime="15.00" waitingCount="1" stopTime="0.00" timeLoss="33.83" rerouteNo="0" devices="tripinfo_44" vType="DEFAULT_VEHTYPE" speedFactor="1.04" vaporized=""/>
    <tripinfo id="52" depart="61.00" departLane="53o_0" departPos="5.10" departSpeed="0.00" departDelay="-0.88" arrival="123.00" arrivalLane="51i_0" arrivalPos="10.00" arrivalSpeed="19.31" duration="62.00" routeLength="617.75" waitingTime="10.00" waitingCount="1" stopTime="0.00" timeLoss="29.09" rerouteNo="0" devices="tripinfo_52" vType="DEFAULT_VEHTYPE" speedFactor="1.02" vaporized=""/>
    <tripinfo id="55" depart="70.00" departLane="53o_0" departPos="5.10" departSpeed="0.00" departDelay="4.55" arrival="123.00" arrivalLane="52i_0" arrivalPos="10.00" arrivalSpeed="19.10" duration="53.00" routeLength="596.93" waitingTime="3.00" waitingCount="1" stopTime="0.00" timeLoss="21.30" rerouteNo="0" devices="tripinfo_55" vType="DEFAULT_VEHTYPE" speedFactor="1.00" vaporized=""/>
    <tripinfo id="57" depart="73.00" departLane="53o_0" departPos="5.10" departSpeed="0.00" departDelay="5.17" arrival="124.00" arrivalLane="51i_0" arrivalPos="10.00" arrivalSpeed="20.83" duration="51.00" routeLength="617.75" waitingTime="0.00" waitingCount="0" stopTime="0.00" timeLoss="22.02" rerouteNo="0" devices="tripinfo_57" vType="DEFAULT_VEHTYPE" speedFactor="1.14" vaporized=""/>
    <tripinfo id="68" depart="88.00" departLane="53o_0" departPos="5.10" departSpeed="0.00" departDelay="7.08" arrival="125.00" arrivalLane="54i_2" arrivalPos="10.00" arrivalSpeed="19.37" duration="37.00" routeLength="615.10" waitingTime="0.00" waitingCount="0" stopTime="0.00" timeLoss="6.15" rerouteNo="0" devices="tripinfo_68" vType="DEFAULT_VEHTYPE" speedFactor="1.04" vaporized=""/>
    <tripinfo id="63" depart="82.00" departLane="53o_0" departPos="5.10" departSpeed="0.00" departDelay="7.03" arrival="126.00" arrivalLane="52i_0" arrivalPos="10.00" arrivalSpeed="19.02" duration="44.00" routeLength="596.93" waitingTime="0.00" waitingCount="0" stopTime="0.00" timeLoss="12.21" rerouteNo="0" devices="tripinfo_63" vType="DEFAULT_VEHTYPE" speedFactor="0.99" vaporized=""/>
    <tripinfo id="66" depart="85.00" departLane="53o_0" departPos="5.10" departSpeed="0.00" departDelay="6.46" arrival="132.00" arrivalLane="52i_0" arrivalPos="10.00" arrivalSpeed="16.55" duration="47.00" routeLength="596.93" waitingTime="0.00" waitingCount="0" stopTime="0.00" timeLoss="11.34" rerouteNo="0" devices="tripinfo_66" vType="DEFAULT_VEHTYPE" speedFactor="0.91" vaporized=""/>
    <tripinfo id="73" depart="91.00" departLane="53o_0" departPos="5.10" departSpeed="0.00" departDelay="4.13" arrival="132.00" arrivalLane="51i_0" arrivalPos="10.00" arrivalSpeed="19.65" duration="41.00" routeLength="617.75" waitingTime="0.00" waitingCount="0" stopTime="0.00" timeLoss="9.86" rerouteNo="0" devices="tripinfo_73" vType="DEFAULT_VEHTYPE" speedFactor="1.06" vaporized=""/>
    <tripinfo id="77" depart="94.00" departLane="53o_0" departPos="5.10" departSpeed="0.00" departDelay="2.37" arrival="136.00" arrivalLane="51i_0" arrivalPos="10.00" arrivalSpeed="18.96" duration="42.00" routeLength="617.75" waitingTime="0.00" waitingCount="0" stopTime="0.00" timeLoss="7.75" rerouteNo="0" devices="tripinfo_77" vType="DEFAULT_VEHTYPE" speedFactor="0.98" vaporized=""/>
    <tripinfo id="79" depart="97.00" departLane="53o_0" departPos="5.10" departSpeed="0.00" departDelay="2.99" arrival="136.00" arrivalLane="52i_0" arrivalPos="10.00" arrivalSpeed="20.75" duration="39.00" routeLength="596.93" waitingTime="0.00" waitingCount="0" stopTime="0.00" timeLoss="9.33" rerouteNo="0" devices="tripinfo_79" vType="DEFAULT_VEHTYPE" speedFactor="1.09" vaporized=""/>
    <tripinfo id="80" depart="100.00" departLane="53o_0" departPos="5.10" departSpeed="0.00" departDelay="4.80" arrival="136.00" arrivalLane="54i_1" arrivalPos="10.00" arrivalSpeed="20.00" duration="36.00" routeLength="615.10" waitingTime="0.00" waitingCount="0" stopTime="0.00" timeLoss="5.00" rerouteNo="0" devices="tripinfo_80" vType="DEFAULT_VEHTYPE" speedFactor="1.03" vaporized=""/>
    <tripinfo id="2" depart="2.00" departLane="51o_0" departPos="5.10" departSpeed="0.00" departDelay="-0.38" arrival="143.00" arrivalLane="52i_0" arrivalPos="10.00" arrivalSpeed="19.10" duration="141.00" routeLength="615.10" waitingTime="97.00" waitingCount="1" stopTime="0.00" timeLoss="109.34" rerouteNo="0" devices="tripinfo_2" vType="DEFAULT_VEHTYPE" speedFactor="1.01" vaporized=""/>
    <tripinfo id="3" depart="5.00" departLane="51o_0" departPos="5.10" departSpeed="0.00" departDelay="1.43" arrival="143.00" arrivalLane="52i_1" arrivalPos="10.00" arrivalSpeed="20.35" duration="138.00" routeLength="615.10" waitingTime="94.00" waitingCount="1" stopTime="0.00" timeLoss="108.58" rerouteNo="0" devices="tripinfo_3" vType="DEFAULT_VEHTYPE" speedFactor="1.08" vaporized=""/>
    <tripinfo id="10" depart="12.00" departLane="51o_0" departPos="5.10" departSpeed="0.00" departDelay="0.10" arrival="145.00" arrivalLane="53i_0" arrivalPos="10.00" arrivalSpeed="19.98" duration="133.00" routeLength="596.93" waitingTime="89.00" waitingCount="1" stopTime="0.00" timeLoss="103.48" rerouteNo="0" devices="tripinfo_10" vType="DEFAULT_VEHTYPE" speedFactor="1.09" vaporized=""/>
    <tripinfo id="8" depart="9.00" departLane="51o_0" departPos="5.10" departSpeed="0.00" departDelay="-0.52" arrival="146.00" arrivalLane="54i_0" arrivalPos="10.00" arrivalSpeed="17.59" duration="137.00" routeLength="617.75" waitingTime="88.00" waitingCount="1" stopTime="0.00" timeLoss="101.87" rerouteNo="0" devices="tripinfo_8" vType="DEFAULT_VEHTYPE" speedFactor="0.94" vaporized=""/>
    <tripinfo id="14" depart="18.00" departLane="51o_0" departPos="5.10" departSpeed="0.00" departDelay="1.34" arrival="146.00" arrivalLane="52i_1" arrivalPos="10.00" arrivalSpeed="19.22" duration="128.00" routeLength="615.10" waitingTime="79.00" waitingCount="1" stopTime="0.00" timeLoss="95.34" rerouteNo="0" devices="tripinfo_14" vType="DEFAULT_VEHTYPE" speedFactor="0.99" vaporized=""/>
    <tripinfo id="12" depart="15.00" departLane="51o_0" departPos="5.10" departSpeed="0.00" departDelay="0.72" arrival="148.00" arrivalLane="54i_0" arrivalPos="10.00" arrivalSpeed="20.10" duration="133.00" routeLength="617.75" waitingTime="84.00" waitingCount="1" stopTime="0.00" timeLoss="101.11" rerouteNo="0" devices="tripinfo_12" vType="DEFAULT_VEHTYPE" speedFactor="1.05" vaporized=""/>
    <tripinfo id="34" depart="40.00" departLane="51o_0" departPos="5.10" departSpeed="0.00" departDelay="-0.46" arrival="148.00" arrivalLane="52i_1" arrivalPos="10.00" arrivalSpeed="19.27" duration="108.00" routeLength="615.10" waitingTime="59.00" waitingCount="1" stopTime="0.00" timeLoss="75.41" rerouteNo="0" devices="tripinfo_34" vType="DEFAULT_VEHTYPE" speedFactor="0.99" vaporized=""/>
    <tripinfo id="15" depart="21.00" departLane="51o_0" departPos="5.10" departSpeed="0.00" departDelay="3.15" arrival="150.00" arrivalLane="53i_0" arrivalPos="10.00" arrivalSpeed="16.83" duration="129.00" routeLength="596.93" waitingTime="81.00" waitingCount="1" stopTime="0.00" timeLoss="94.10" rerouteNo="0" devices="tripinfo_15" vType="DEFAULT_VEHTYPE" speedFactor="0.93" vaporized=""/>
    <tripinfo id="41" depart="48.00" departLane="51o_0" departPos="5.10" departSpeed="0.00" departDelay="-0.79" arrival="150.00" arrivalLane="52i_1" arrivalPos="10.00" arrivalSpeed="18.00" duration="102.00" routeLength="615.10" waitingTime="51.00" waitingCount="1" stopTime="0.00" timeLoss="68.51" rerouteNo="0" devices="tripinfo_41" vType="DEFAULT_VEHTYPE" speedFactor="0.96" vaporized=""/>
    <tripinfo id="61" depart="72.00" departLane="51o_0" departPos="5.10" departSpeed="0.00" departDelay="-0.59" arrival="151.00" arrivalLane="53i_0" arrivalPos="10.00" arrivalSpeed="20.16" duration="79.00" routeLength="596.93" waitingTime="32.00" waitingCount="1" stopTime="0.00" timeLoss="50.80" rerouteNo="0" devices="tripinfo_61" vType="DEFAULT_VEHTYPE" speedFactor="1.12" vaporized=""/>
    <tripinfo id="25" depart="29.00" departLane="51o_0" departPos="5.10" departSpeed="0.00" departDelay="-0.75" arrival="152.00" arrivalLane="52i_2" arrivalPos="10.00" arrivalSpeed="16.15" duration="123.00" routeLength="615.10" waitingTime="72.00" waitingCount="1" stopTime="0.00" timeLoss="85.84" rerouteNo="0" devices="tripinfo_25" vType="DEFAULT_VEHTYPE" speedFactor="0.87" vaporized=""/>
    <tripinfo id="59" depart="70.00" departLane="51o_0" departPos="5.10" departSpeed="0.00" departDelay="-0.21" arrival="152.00" arrivalLane="52i_1" arrivalPos="10.00" arrivalSpeed="18.03" duration="82.00" routeLength="615.10" waitingTime="31.00" waitingCount="1" stopTime="0.00" timeLoss="49.28" rerouteNo="0" devices="tripinfo_59" vType="DEFAULT_VEHTYPE" speedFactor="0.97" vaporized=""/>
    <tripinfo id="42" depart="51.00" departLane="51o_0" departPos="5.10" departSpeed="0.00" departDelay="1.02" arrival="153.00" arrivalLane="52i_2" arrivalPos="10.00" arrivalSpeed="19.79" duration="102.00" routeLength="615.10" waitingTime="54.00" waitingCount="1" stopTime="0.00" timeLoss="72.90" rerouteNo="0" devices="tripinfo_42" vType="DEFAULT_VEHTYPE" speedFactor="1.09" vaporized=""/>
    <tripinfo id="29" depart="34.00" departLane="51o_0" departPos="5.10" departSpeed="0.00" departDelay="-0.51" arrival="154.00" arrivalLane="54i_0" arrivalPos="10.00" arrivalSpeed="17.77" duration="120.00" routeLength="617.75" waitingTime="67.00" waitingCount="1" stopTime="0.00" timeLoss="84.14" rerouteNo="0" devices="tripinfo_29" vType="DEFAULT_VEHTYPE" speedFactor="0.93" vaporized=""/>
    <tripinfo id="95" depart="113.00" departLane="51o_0" departPos="5.10" departSpeed="0.00" departDelay="-0.05" arrival="154.00" arrivalLane="53i_0" arrivalPos="10.00" arrivalSpeed="19.59" duration="41.00" routeLength="596.93" waitingTime="0.00" waitingCount="0" stopTime="0.00" timeLoss="10.85" rerouteNo="0" devices="tripinfo_95" vType="DEFAULT_VEHTYPE" speedFactor="1.06" vaporized=""/>
    <tripinfo id="99" depart="119.00" departLane="51o_0" departPos="5.10" departSpeed="0.00" departDelay="1.19" arrival="158.00" arrivalLane="53i_0" arrivalPos="10.00" arrivalSpeed="20.78" duration="39.00" routeLength="596.93" waitingTime="0.00" waitingCount="0" stopTime="0.00" timeLoss="10.09" rerouteNo="0" devices="tripinfo_99" vType="DEFAULT_VEHTYPE" speedFactor="1.10" vaporized=""/>
    <tripinfo id="50" depart="59.00" departLane="51o_0" departPos="5.10" departSpeed="0.00" departDelay="-0.50" arrival="161.00" arrivalLane="54i_0" arrivalPos="10.00" arrivalSpeed="15.85" duration="102.00" routeLength="617.75" waitingTime="45.00" waitingCount="1" stopTime="0.00" timeLoss="62.95" rerouteNo="0" devices="tripinfo_50" vType="DEFAULT_VEHTYPE" speedFactor="0.85" vaporized=""/>
    <tripinfo id="6" depart="7.00" departLane="54o_0" departPos="5.10" departSpeed="0.00" departDelay="-0.14" arrival="164.00" arrivalLane="53i_0" arrivalPos="10.00" arrivalSpeed="19.91" duration="157.00" routeLength="615.10" waitingTime="112.00" waitingCount="1" stopTime="0.00" timeLoss="125.78" rerouteNo="0" devices="tripinfo_6" vType="DEFAULT_VEHTYPE" speedFactor="1.05" vaporized=""/>
    <tripinfo id="11" depart="15.00" departLane="4i_0" departPos="5.10" departSpeed="0.00" departDelay="1.91" arrival="164.00" arrivalLane="52i_0" arrivalPos="10.00" arrivalSpeed="19.51" duration="149.00" routeLength="607.65" waitingTime="104.00" waitingCount="1" stopTime="0.00" timeLoss="117.20" rerouteNo="0" devices="tripinfo_11" vType="DEFAULT_VEHTYPE" speedFactor="1.03" vaporized=""/>
    <tripinfo id="19" depart="22.00" departLane="54o_0" departPos="5.10" departSpeed="0.00" departDelay="-0.61" arrival="164.00" arrivalLane="53i_2" arrivalPos="10.00" arrivalSpeed="21.84" duration="142.00" routeLength="615.10" waitingTime="100.00" waitingCount="1" stopTime="0.00" timeLoss="114.53" rerouteNo="0" devices="tripinfo_19" vType="DEFAULT_VEHTYPE" speedFactor="1.16" vaporized=""/>
    <tripinfo id="16" depart="19.00" departLane="54o_0" departPos="5.10" departSpeed="0.00" departDelay="-0.04" arrival="166.00" arrivalLane="53i_0" arrivalPos="10.00" arrivalSpeed="16.65" duration="147.00" routeLength="615.10" waitingTime="97.00" waitingCount="1" stopTime="0.00" timeLoss="110.48" rerouteNo="0" devices="tripinfo_16" vType="DEFAULT_VEHTYPE" speedFactor="0.88" vaporized=""/>
    <tripinfo id="21" depart="25.00" departLane="54o_0" departPos="5.10" departSpeed="0.00" departDelay="0.01" arrival="166.00" arrivalLane="53i_1" arrivalPos="10.00" arrivalSpeed="18.53" duration="141.00" routeLength="615.10" waitingTime="92.00" waitingCount="1" stopTime="0.00" timeLoss="109.62" rerouteNo="0" devices="tripinfo_21" vType="DEFAULT_VEHTYPE" speedFactor="1.01" vaporized=""/>
    <tripinfo id="7" depart="10.00" departLane="54o_0" departPos="5.10" departSpeed="0.00" departDelay="1.67" arrival="168.00" arrivalLane="51i_0" arrivalPos="10.00" arrivalSpeed="16.19" duration="158.00" routeLength="596.93" waitingTime="108.00" waitingCount="1" stopTime="0.00" timeLoss="122.10" rerouteNo="0" devices="tripinfo_7" vType="DEFAULT_VEHTYPE" speedFactor="0.89" vaporized=""/>
    <tripinfo id="22" depart="28.00" departLane="54o_0" departPos="5.10" departSpeed="0.00" departDelay="1.82" arrival="168.00" arrivalLane="53i_2" arrivalPos="10.00" arrivalSpeed="18.72" duration="140.00" routeLength="615.10" waitingTime="94.00" waitingCount="1" stopTime="0.00" timeLoss="106.81" rerouteNo="0" devices="tripinfo_22" vType="DEFAULT_VEHTYPE" speedFactor="0.98" vaporized=""/>
    <tripinfo id="35" depart="42.00" departLane="54o_0" departPos="5.10" departSpeed="0.00" departDelay="0.35" arrival="169.00" arrivalLane="53i_1" arrivalPos="10.00" arrivalSpeed="19.37" duration="127.00" routeLength="615.10" waitingTime="78.00" waitingCount="1" stopTime="0.00" timeLoss="95.05" rerouteNo="0" devices="tripinfo_35" vType="DEFAULT_VEHTYPE" speedFactor="1.02" vaporized=""/>
    <tripinfo id="33" depart="39.00" departLane="54o_0" departPos="5.10" departSpeed="0.00" departDelay="-0.27" arrival="170.00" arrivalLane="52i_0" arrivalPos="10.00" arrivalSpeed="21.85" duration="131.00" routeLength="617.75" waitingTime="86.00" waitingCount="1" stopTime="0.00" timeLoss="102.60" rerouteNo="0" devices="tripinfo_33" vType="DEFAULT_VEHTYPE" speedFactor="1.17" vaporized=""/>
    <tripinfo id="75" depart="89.00" departLane="54o_0" departPos="5.10" departSpeed="0.00" departDelay="-0.25" arrival="170.00" arrivalLane="53i_1" arrivalPos="10.00" arrivalSpeed="18.98" duration="81.00" routeLength="615.10" waitingTime="29.00" waitingCount="1" stopTime="0.00" timeLoss="48.53" rerouteNo="0" devices="tripinfo_75" vType="DEFAULT_VEHTYPE" speedFactor="0.98" vaporized=""/>
    <tripinfo id="24" depart="31.00" departLane="54o_0" departPos="5.10" departSpeed="0.00" departDelay="2.44" arrival="172.00" arrivalLane="51i_0" arrivalPos="10.00" arrivalSpeed="15.51" duration="141.00" routeLength="596.93" waitingTime="88.00" waitingCount="1" stopTime="0.00" timeLoss="102.53" rerouteNo="0" devices="tripinfo_24" vType="DEFAULT_VEHTYPE" speedFactor="0.83" vaporized=""/>
    <tripinfo id="91" depart="111.00" departLane="54o_0" departPos="5.10" departSpeed="0.00" departDelay="2.71" arrival="173.00" arrivalLane="53i_1" arrivalPos="10.00" arrivalSpeed="17.18" duration="62.00" routeLength="615.10" waitingTime="8.00" waitingCount="1" stopTime="0.00" timeLoss="26.37" rerouteNo="0" devices="tripinfo_91" vType="DEFAULT_VEHTYPE" speedFactor="0.89" vaporized=""/>
    <tripinfo id="36" depart="45.00" departLane="54o_0" departPos="5.10" departSpeed="0.00" departDelay="2.16" arrival="174.00" arrivalLane="52i_0" arrivalPos="10.00" arrivalSpeed="18.57" duration="129.00" routeLength="617.75" waitingTime="81.00" waitingCount="1" stopTime="0.00" timeLoss="94.94" rerouteNo="0" devices="tripinfo_36" vType="DEFAULT_VEHTYPE" speedFactor="0.97" vaporized=""/>
    <tripinfo id="49" depart="60.00" departLane="54o_0" departPos="5.10" departSpeed="0.00" departDelay="1.69" arrival="174.00" arrivalLane="53i_0" arrivalPos="10.00" arrivalSpeed="15.87" duration="114.00" routeLength="615.10" waitingTime="61.00" waitingCount="1" stopTime="0.00" timeLoss="76.27" rerouteNo="0" devices="tripinfo_49" vType="DEFAULT_VEHTYPE" speedFactor="0.85" vaporized=""/>
    <tripinfo id="100" depart="119.00" departLane="54o_0" departPos="5.10" departSpeed="0.00" departDelay="0.00" arrival="175.00" arrivalLane="53i_1" arrivalPos="10.00" arrivalSpeed="19.51" duration="56.00" routeLength="615.10" waitingTime="5.00" waitingCount="1" stopTime="0.00" timeLoss="25.64" rerouteNo="0" devices="tripinfo_100" vType="DEFAULT_VEHTYPE" speedFactor="1.07" vaporized=""/>
    <tripinfo id="38" depart="48.00" departLane="54o_0" departPos="5.10" departSpeed="0.00" departDelay="2.78" arrival="176.00" arrivalLane="52i_0" arrivalPos="10.00" arrivalSpeed="20.19" duration="128.00" routeLength="617.75" waitingTime="79.00" waitingCount="1" stopTime="0.00" timeLoss="97.88" rerouteNo="0" devices="tripinfo_38" vType="DEFAULT_VEHTYPE" speedFactor="1.10" vaporized=""/>
    <tripinfo id="56" depart="66.00" departLane="54o_0" departPos="5.10" departSpeed="0.00" departDelay="-0.64" arrival="176.00" arrivalLane="51i_0" arrivalPos="10.00" arrivalSpeed="16.47" duration="110.00" routeLength="596.93" waitingTime="57.00" waitingCount="1" stopTime="0.00" timeLoss="74.95" rerouteNo="0" devices="tripinfo_56" vType="DEFAULT_VEHTYPE" speedFactor="0.90" vaporized=""/>
    <tripinfo id="102" depart="125.00" departLane="54o_0" departPos="5.10" departSpeed="0.00" departDelay="3.62" arrival="176.00" arrivalLane="53i_1" arrivalPos="10.00" arrivalSpeed="17.66" duration="51.00" routeLength="615.10" waitingTime="1.00" waitingCount="1" stopTime="0.00" timeLoss="18.27" rerouteNo="0" devices="tripinfo_102" vType="DEFAULT_VEHTYPE" speedFactor="0.97" vaporized=""/>
    <tripinfo id="45" depart="53.00" departLane="54o_0" departPos="5.10" departSpeed="0.00" departDelay="-0.55" arrival="177.00" arrivalLane="52i_0" arrivalPos="10.00" arrivalSpeed="21.14" duration="124.00" routeLength="617.75" waitingTime="74.00" waitingCount="1" stopTime="0.00" timeLoss="93.78" rerouteNo="0" devices="tripinfo_45" vType="DEFAULT_VEHTYPE" speedFactor="1.09" vaporized=""/>