<?xml version="1.0" encoding="UTF-8"?>

<!-- generated on Fri Nov  8 03:51:03 2019 by Eclipse SUMO Version 1.2.0
<configuration xmlns:xsi="http://www.w3.org/2001/XMLSchema-instance" xsi:noNamespaceSchemaLocation="http://sumo.dlr.de/xsd/sumoConfiguration.xsd">

    <input>
        <net-file value="simulation_files/sumocfgs/../networks/isolated_3_lanes_4_stages.net.xml"/>
        <route-files value="simulation_files/sumocfgs/../routes/isolated_3_lanes_60p.rou.xml"/>
    </input>

    <output>
        <tripinfo-output value="./output/exp21_rf_60p/throughput__5_tripinfo_isolated.xml"/>
    </output>

    <time>
        <begin value="0"/>
        <step-length value="1"/>
    </time>

    <report>
        <verbose value="true"/>
        <no-step-log value="true"/>
    </report>

    <gui_only>
        <tracker-interval value="1"/>
    </gui_only>

</configuration>
-->

<tripinfos xmlns:xsi="http://www.w3.org/2001/XMLSchema-instance" xsi:noNamespaceSchemaLocation="http://sumo.dlr.de/xsd/tripinfo_file.xsd">
    <tripinfo id="1" depart="1.00" departLane="54o_0" departPos="5.10" departSpeed="0.00" departDelay="-0.19" arrival="40.00" arrivalLane="53i_0" arrivalPos="10.00" arrivalSpeed="17.14" duration="39.00" routeLength="615.10" waitingTime="0.00" waitingCount="0" stopTime="0.00" timeLoss="5.09" rerouteNo="0" devices="tripinfo_1" vType="DEFAULT_VEHTYPE" speedFactor="0.94" vaporized=""/>
    <tripinfo id="0" depart="0.00" departLane="52o_0" departPos="5.10" departSpeed="0.00" departDelay="0.00" arrival="47.00" arrivalLane="53i_0" arrivalPos="10.00" arrivalSpeed="20.00" duration="47.00" routeLength="617.75" waitingTime="2.00" waitingCount="1" stopTime="0.00" timeLoss="15.40" rerouteNo="0" devices="tripinfo_0" vType="DEFAULT_VEHTYPE" speedFactor="1.06" vaporized=""/>
    <tripinfo id="5" depart="5.00" departLane="52o_0" departPos="5.10" departSpeed="0.00" departDelay="-0.95" arrival="49.00" arrivalLane="51i_0" arrivalPos="10.00" arrivalSpeed="15.14" duration="44.00" routeLength="615.10" waitingTime="0.00" waitingCount="0" stopTime="0.00" timeLoss="5.00" rerouteNo="0" devices="tripinfo_5" vType="DEFAULT_VEHTYPE" speedFactor="0.83" vaporized=""/>
    <tripinfo id="9" depart="10.00" departLane="52o_0" departPos="5.10" departSpeed="0.00" departDelay="-0.71" arrival="55.00" arrivalLane="54i_0" arrivalPos="10.00" arrivalSpeed="16.46" duration="45.00" routeLength="596.93" waitingTime="0.00" waitingCount="0" stopTime="0.00" timeLoss="7.72" rerouteNo="0" devices="tripinfo_9" vType="DEFAULT_VEHTYPE" speedFactor="0.86" vaporized=""/>
    <tripinfo id="4" depart="4.00" departLane="53o_0" departPos="5.10" departSpeed="0.00" departDelay="-0.76" arrival="65.00" arrivalLane="51i_0" arrivalPos="10.00" arrivalSpeed="19.81" duration="61.00" routeLength="617.75" waitingTime="17.00" waitingCount="1" stopTime="0.00" timeLoss="28.45" rerouteNo="0" devices="tripinfo_4" vType="DEFAULT_VEHTYPE" speedFactor="1.03" vaporized=""/>
    <tripinfo id="13" depart="15.00" departLane="53o_0" departPos="5.10" departSpeed="0.00" departDelay="-0.47" arrival="66.00" arrivalLane="51i_0" arrivalPos="10.00" arrivalSpeed="21.04" duration="51.00" routeLength="617.75" waitingTime="7.00" waitingCount="1" stopTime="0.00" timeLoss="21.60" rerouteNo="0" devices="tripinfo_13" vType="DEFAULT_VEHTYPE" speedFactor="1.12" vaporized=""/>
    <tripinfo id="23" depart="27.00" departLane="53o_0" departPos="5.10" departSpeed="0.00" departDelay="-0.37" arrival="68.00" arrivalLane="54i_0" arrivalPos="10.00" arrivalSpeed="16.39" duration="41.00" routeLength="615.10" waitingTime="0.00" waitingCount="0" stopTime="0.00" timeLoss="5.34" rerouteNo="0" devices="tripinfo_23" vType="DEFAULT_VEHTYPE" speedFactor="0.89" vaporized=""/>
    <tripinfo id="20" depart="23.00" departLane="53o_0" departPos="5.10" departSpeed="0.00" departDelay="-0.80" arrival="70.00" arrivalLane="51i_0" arrivalPos="10.00" arrivalSpeed="18.80" duration="47.00" routeLength="617.75" waitingTime="0.00" waitingCount="0" stopTime="0.00" timeLoss="14.11" rerouteNo="0" devices="tripinfo_20" vType="DEFAULT_VEHTYPE" speedFactor="1.02" vaporized=""/>
    <tripinfo id="26" depart="30.00" departLane="53o_0" departPos="5.10" departSpeed="0.00" departDelay="-0.94" arrival="74.00" arrivalLane="52i_0" arrivalPos="10.00" arrivalSpeed="16.61" duration="44.00" routeLength="596.93" waitingTime="0.00" waitingCount="0" stopTime="0.00" timeLoss="9.31" rerouteNo="0" devices="tripinfo_26" vType="DEFAULT_VEHTYPE" speedFactor="0.92" vaporized=""/>
    <tripinfo id="30" depart="35.00" departLane="53o_0" departPos="5.10" departSpeed="0.00" departDelay="-0.70" arrival="75.00" arrivalLane="52i_0" arrivalPos="10.00" arrivalSpeed="18.80" duration="40.00" routeLength="596.93" waitingTime="0.00" waitingCount="0" stopTime="0.00" timeLoss="13.33" rerouteNo="0" devices="tripinfo_30" vType="DEFAULT_VEHTYPE" speedFactor="1.18" vaporized=""/>
    <tripinfo id="31" depart="38.00" departLane="53o_0" departPos="5.10" departSpeed="0.00" departDelay="1.11" arrival="77.00" arrivalLane="52i_0" arrivalPos="10.00" arrivalSpeed="21.58" duration="39.00" routeLength="596.93" waitingTime="0.00" waitingCount="0" stopTime="0.00" timeLoss="11.45" rerouteNo="0" devices="tripinfo_31" vType="DEFAULT_VEHTYPE" speedFactor="1.15" vaporized=""/>
    <tripinfo id="32" depart="41.00" departLane="53o_0" departPos="5.10" departSpeed="0.00" departDelay="2.92" arrival="79.00" arrivalLane="54i_1" arrivalPos="10.00" arrivalSpeed="18.83" duration="38.00" routeLength="615.10" waitingTime="0.00" waitingCount="0" stopTime="0.00" timeLoss="6.04" rerouteNo="0" devices="tripinfo_32" vType="DEFAULT_VEHTYPE" speedFactor="1.01" vaporized=""/>
    <tripinfo id="37" depart="44.00" departLane="53o_0" departPos="5.10" departSpeed="0.00" departDelay="-0.03" arrival="83.00" arrivalLane="51i_0" arrivalPos="10.00" arrivalSpeed="22.58" duration="39.00" routeLength="617.75" waitingTime="0.00" waitingCount="0" stopTime="0.00" timeLoss="10.59" rerouteNo="0" devices="tripinfo_37" vType="DEFAULT_VEHTYPE" speedFactor="1.18" vaporized=""/>
    <tripinfo id="39" depart="47.00" departLane="53o_0" departPos="5.10" departSpeed="0.00" departDelay="0.59" arrival="88.00" arrivalLane="54i_0" arrivalPos="10.00" arrivalSpeed="17.00" duration="41.00" routeLength="615.10" waitingTime="0.00" waitingCount="0" stopTime="0.00" timeLoss="5.09" rerouteNo="0" devices="tripinfo_39" vType="DEFAULT_VEHTYPE" speedFactor="0.90" vaporized=""/>
    <tripinfo id="40" depart="50.00" departLane="53o_0" departPos="5.10" departSpeed="0.00" departDelay="2.40" arrival="90.00" arrivalLane="51i_0" arrivalPos="10.00" arrivalSpeed="19.82" duration="40.00" routeLength="617.75" waitingTime="0.00" waitingCount="0" stopTime="0.00" timeLoss="7.75" rerouteNo="0" devices="tripinfo_40" vType="DEFAULT_VEHTYPE" speedFactor="1.03" vaporized=""/>
    <tripinfo id="43" depart="53.00" departLane="53o_0" departPos="5.10" departSpeed="0.00" departDelay="1.83" arrival="92.00" arrivalLane="52i_0" arrivalPos="10.00" arrivalSpeed="19.53" duration="39.00" routeLength="596.93" waitingTime="0.00" waitingCount="0" stopTime="0.00" timeLoss="8.71" rerouteNo="0" devices="tripinfo_43" vType="DEFAULT_VEHTYPE" speedFactor="1.04" vaporized=""/>
    <tripinfo id="44" depart="56.00" departLane="53o_0" departPos="5.10" departSpeed="0.00" departDelay="3.64" arrival="96.00" arrivalLane="52i_0" arrivalPos="10.00" arrivalSpeed="19.75" duration="40.00" routeLength="596.93" waitingTime="0.00" waitingCount="0" stopTime="0.00" timeLoss="8.97" rerouteNo="0" devices="tripinfo_44" vType="DEFAULT_VEHTYPE" speedFactor="1.04" vaporized=""/>
    <tripinfo id="3" depart="5.00" departLane="51o_0" departPos="5.10" departSpeed="0.00" departDelay="1.43" arrival="101.00" arrivalLane="52i_1" arrivalPos="10.00" arrivalSpeed="20.60" duration="96.00" routeLength="615.10" waitingTime="52.00" waitingCount="1" stopTime="0.00" timeLoss="66.52" rerouteNo="0" devices="tripinfo_3" vType="DEFAULT_VEHTYPE" speedFactor="1.08" vaporized=""/>
    <tripinfo id="2" depart="2.00" departLane="51o_0" departPos="5.10" departSpeed="0.00" departDelay="-0.38" arrival="102.00" arrivalLane="52i_0" arrivalPos="10.00" arrivalSpeed="18.57" duration="100.00" routeLength="615.10" waitingTime="55.00" waitingCount="1" stopTime="0.00" timeLoss="67.97" rerouteNo="0" devices="tripinfo_2" vType="DEFAULT_VEHTYPE" speedFactor="1.01" vaporized=""/>
    <tripinfo id="10" depart="12.00" departLane="51o_0" departPos="5.10" departSpeed="0.00" departDelay="0.10" arrival="103.00" arrivalLane="53i_0" arrivalPos="10.00" arrivalSpeed="20.45" duration="91.00" routeLength="596.93" waitingTime="47.00" waitingCount="1" stopTime="0.00" timeLoss="61.07" rerouteNo="0" devices="tripinfo_10" vType="DEFAULT_VEHTYPE" speedFactor="1.09" vaporized=""/>
    <tripinfo id="8" depart="9.00" departLane="51o_0" departPos="5.10" departSpeed="0.00" departDelay="-0.52" arrival="104.00" arrivalLane="54i_0" arrivalPos="10.00" arrivalSpeed="17.25" duration="95.00" routeLength="617.75" waitingTime="46.00" waitingCount="1" stopTime="0.00" timeLoss="59.33" rerouteNo="0" devices="tripinfo_8" vType="DEFAULT_VEHTYPE" speedFactor="0.94" vaporized=""/>
    <tripinfo id="14" depart="18.00" departLane="51o_0" departPos="5.10" departSpeed="0.00" departDelay="1.34" arrival="104.00" arrivalLane="52i_1" arrivalPos="10.00" arrivalSpeed="18.24" duration="86.00" routeLength="615.10" waitingTime="37.00" waitingCount="1" stopTime="0.00" timeLoss="53.80" rerouteNo="0" devices="tripinfo_14" vType="DEFAULT_VEHTYPE" speedFactor="0.99" vaporized=""/>
    <tripinfo id="12" depart="15.00" departLane="51o_0" departPos="5.10" departSpeed="0.00" departDelay="0.72" arrival="105.00" arrivalLane="54i_0" arrivalPos="10.00" arrivalSpeed="18.83" duration="90.00" routeLength="617.75" waitingTime="42.00" waitingCount="1" stopTime="0.00" timeLoss="58.41" rerouteNo="0" devices="tripinfo_12" vType="DEFAULT_VEHTYPE" speedFactor="1.05" vaporized=""/>
    <tripinfo id="34" depart="40.00" departLane="51o_0" departPos="5.10" departSpeed="0.00" departDelay="-0.46" arrival="106.00" arrivalLane="52i_1" arrivalPos="10.00" arrivalSpeed="18.44" duration="66.00" routeLength="615.10" waitingTime="17.00" waitingCount="1" stopTime="0.00" timeLoss="33.77" rerouteNo="0" devices="tripinfo_34" vType="DEFAULT_VEHTYPE" speedFactor="0.99" vaporized=""/>
    <tripinfo id="15" depart="21.00" departLane="51o_0" departPos="5.10" departSpeed="0.00" departDelay="3.15" arrival="107.00" arrivalLane="53i_0" arrivalPos="10.00" arrivalSpeed="16.86" duration="86.00" routeLength="596.93" waitingTime="39.00" waitingCount="1" stopTime="0.00" timeLoss="52.27" rerouteNo="0" devices="tripinfo_15" vType="DEFAULT_VEHTYPE" speedFactor="0.93" vaporized=""/>
    <tripinfo id="25" depart="29.00" departLane="51o_0" departPos="5.10" departSpeed="0.00" departDelay="-0.75" arrival="108.00" arrivalLane="52i_2" arrivalPos="10.00" arrivalSpeed="16.15" duration="79.00" routeLength="615.10" waitingTime="30.00" waitingCount="1" stopTime="0.00" timeLoss="41.95" rerouteNo="0" devices="tripinfo_25" vType="DEFAULT_VEHTYPE" speedFactor="0.87" vaporized=""/>
    <tripinfo id="41" depart="48.00" departLane="51o_0" departPos="5.10" departSpeed="0.00" departDelay="-0.79" arrival="109.00" arrivalLane="52i_1" arrivalPos="10.00" arrivalSpeed="18.56" duration="61.00" routeLength="615.10" waitingTime="9.00" waitingCount="1" stopTime="0.00" timeLoss="27.34" rerouteNo="0" devices="tripinfo_41" vType="DEFAULT_VEHTYPE" speedFactor="0.96" vaporized=""/>
    <tripinfo id="42" depart="51.00" departLane="51o_0" departPos="5.10" departSpeed="0.00" departDelay="1.02" arrival="110.00" arrivalLane="52i_2" arrivalPos="10.00" arrivalSpeed="20.89" duration="59.00" routeLength="615.10" waitingTime="12.00" waitingCount="1" stopTime="0.00" timeLoss="29.98" rerouteNo="0" devices="tripinfo_42" vType="DEFAULT_VEHTYPE" speedFactor="1.09" vaporized=""/>
    <tripinfo id="29" depart="34.00" departLane="51o_0" departPos="5.10" departSpeed="0.00" departDelay="-0.51" arrival="111.00" arrivalLane="54i_0" arrivalPos="10.00" arrivalSpeed="17.85" duration="77.00" routeLength="617.75" waitingTime="25.00" waitingCount="1" stopTime="0.00" timeLoss="41.36" rerouteNo="0" devices="tripinfo_29" vType="DEFAULT_VEHTYPE" speedFactor="0.93" vaporized=""/>
    <tripinfo id="61" depart="72.00" departLane="51o_0" departPos="5.10" departSpeed="0.00" departDelay="-0.59" arrival="111.00" arrivalLane="53i_0" arrivalPos="10.00" arrivalSpeed="21.71" duration="39.00" routeLength="596.93" waitingTime="0.00" waitingCount="0" stopTime="0.00" timeLoss="10.32" rerouteNo="0" devices="tripinfo_61" vType="DEFAULT_VEHTYPE" speedFactor="1.12" vaporized=""/>
    <tripinfo id="59" depart="70.00" departLane="51o_0" departPos="5.10" departSpeed="0.00" departDelay="-0.21" arrival="115.00" arrivalLane="52i_1" arrivalPos="10.00" arrivalSpeed="18.77" duration="45.00" routeLength="615.10" waitingTime="0.00" waitingCount="0" stopTime="0.00" timeLoss="11.59" rerouteNo="0" devices="tripinfo_59" vType="DEFAULT_VEHTYPE" speedFactor="0.97" vaporized=""/>
    <tripinfo id="50" depart="59.00" departLane="51o_0" departPos="5.10" departSpeed="0.00" departDelay="-0.50" arrival="118.00" arrivalLane="54i_0" arrivalPos="10.00" arrivalSpeed="16.28" duration="59.00" routeLength="617.75" waitingTime="4.00" waitingCount="1" stopTime="0.00" timeLoss="19.84" rerouteNo="0" devices="tripinfo_50" vType="DEFAULT_VEHTYPE" speedFactor="0.85" vaporized=""/>
    <tripinfo id="69" depart="82.00" departLane="51o_0" departPos="5.10" departSpeed="0.00" departDelay="-0.11" arrival="124.00" arrivalLane="54i_0" arrivalPos="10.00" arrivalSpeed="19.10" duration="42.00" routeLength="617.75" waitingTime="0.00" waitingCount="0" stopTime="0.00" timeLoss="9.03" rerouteNo="0" devices="tripinfo_69" vType="DEFAULT_VEHTYPE" speedFactor="1.02" vaporized=""/>
    <tripinfo id="70" depart="85.00" departLane="51o_0" departPos="5.10" departSpeed="0.00" departDelay="1.70" arrival="126.00" arrivalLane="54i_0" arrivalPos="10.00" arrivalSpeed="18.74" duration="41.00" routeLength="617.75" waitingTime="0.00" waitingCount="0" stopTime="0.00" timeLoss="8.62" rerouteNo="0" devices="tripinfo_70" vType="DEFAULT_VEHTYPE" speedFactor="1.02" vaporized=""/>
    <tripinfo id="74" depart="88.00" departLane="51o_0" departPos="5.10" departSpeed="0.00" departDelay="-0.06" arrival="131.00" arrivalLane="54i_0" arrivalPos="10.00" arrivalSpeed="17.42" duration="43.00" routeLength="617.75" waitingTime="0.00" waitingCount="0" stopTime="0.00" timeLoss="8.36" rerouteNo="0" devices="tripinfo_74" vType="DEFAULT_VEHTYPE" speedFactor="0.96" vaporized=""/>
    <tripinfo id="76" depart="91.00" departLane="51o_0" departPos="5.10" departSpeed="0.00" departDelay="0.56" arrival="133.00" arrivalLane="54i_0" arrivalPos="10.00" arrivalSpeed="19.96" duration="42.00" routeLength="617.75" waitingTime="0.00" waitingCount="0" stopTime="0.00" timeLoss="9.28" rerouteNo="0" devices="tripinfo_76" vType="DEFAULT_VEHTYPE" speedFactor="1.03" vaporized=""/>
    <tripinfo id="6" depart="7.00" departLane="54o_0" departPos="5.10" departSpeed="0.00" departDelay="-0.14" arrival="143.00" arrivalLane="53i_0" arrivalPos="10.00" arrivalSpeed="19.15" duration="136.00" routeLength="615.10" waitingTime="91.00" waitingCount="1" stopTime="0.00" timeLoss="105.29" rerouteNo="0" devices="tripinfo_6" vType="DEFAULT_VEHTYPE" speedFactor="1.05" vaporized=""/>
    <tripinfo id="11" depart="15.00" departLane="4i_0" departPos="5.10" departSpeed="0.00" departDelay="1.91" arrival="143.00" arrivalLane="52i_0" arrivalPos="10.00" arrivalSpeed="19.49" duration="128.00" routeLength="607.65" waitingTime="83.00" waitingCount="1" stopTime="0.00" timeLoss="96.27" rerouteNo="0" devices="tripinfo_11" vType="DEFAULT_VEHTYPE" speedFactor="1.03" vaporized=""/>
    <tripinfo id="19" depart="22.00" departLane="54o_0" departPos="5.10" departSpeed="0.00" departDelay="-0.61" arrival="143.00" arrivalLane="53i_2" arrivalPos="10.00" arrivalSpeed="17.96" duration="121.00" routeLength="615.10" waitingTime="79.00" waitingCount="1" stopTime="0.00" timeLoss="93.60" rerouteNo="0" devices="tripinfo_19" vType="DEFAULT_VEHTYPE" speedFactor="1.16" vaporized=""/>
    <tripinfo id="16" depart="19.00" departLane="54o_0" departPos="5.10" departSpeed="0.00" departDelay="-0.04" arrival="145.00" arrivalLane="53i_0" arrivalPos="10.00" arrivalSpeed="16.12" duration="126.00" routeLength="615.10" waitingTime="76.00" waitingCount="1" stopTime="0.00" timeLoss="89.36" rerouteNo="0" devices="tripinfo_16" vType="DEFAULT_VEHTYPE" speedFactor="0.88" vaporized=""/>
    <tripinfo id="21" depart="25.00" departLane="54o_0" departPos="5.10" departSpeed="0.00" departDelay="0.01" arrival="146.00" arrivalLane="53i_1" arrivalPos="10.00" arrivalSpeed="19.18" duration="121.00" routeLength="615.10" waitingTime="71.00" waitingCount="1" stopTime="0.00" timeLoss="88.74" rerouteNo="0" devices="tripinfo_21" vType="DEFAULT_VEHTYPE" speedFactor="1.01" vaporized=""/>
    <tripinfo id="22" depart="28.00" departLane="54o_0" departPos="5.10" departSpeed="0.00" departDelay="1.82" arrival="147.00" arrivalLane="53i_2" arrivalPos="10.00" arrivalSpeed="18.36" duration="119.00" routeLength="615.10" waitingTime="73.00" waitingCount="1" stopTime="0.00" timeLoss="86.29" rerouteNo="0" devices="tripinfo_22" vType="DEFAULT_VEHTYPE" speedFactor="0.98" vaporized=""/>
    <tripinfo id="7" depart="10.00" departLane="54o_0" departPos="5.10" departSpeed="0.00" departDelay="1.67" arrival="148.00" arrivalLane="51i_0" arrivalPos="10.00" arrivalSpeed="17.14" duration="138.00" routeLength="596.93" waitingTime="87.00" waitingCount="1" stopTime="0.00" timeLoss="102.21" rerouteNo="0" devices="tripinfo_7" vType="DEFAULT_VEHTYPE" speedFactor="0.89" vaporized=""/>
    <tripinfo id="35" depart="42.00" departLane="54o_0" departPos="5.10" departSpeed="0.00" departDelay="0.35" arrival="148.00" arrivalLane="53i_1" arrivalPos="10.00" arrivalSpeed="18.63" duration="106.00" routeLength="615.10" waitingTime="56.00" waitingCount="1" stopTime="0.00" timeLoss="74.21" rerouteNo="0" devices="tripinfo_35" vType="DEFAULT_VEHTYPE" speedFactor="1.02" vaporized=""/>
    <tripinfo id="33" depart="39.00" departLane="54o_0" departPos="5.10" departSpeed="0.00" departDelay="-0.27" arrival="149.00" arrivalLane="52i_0" arrivalPos="10.00" arrivalSpeed="22.39" duration="110.00" routeLength="617.75" waitingTime="64.00" waitingCount="1" stopTime="0.00" timeLoss="81.81" rerouteNo="0" devices="tripinfo_33" vType="DEFAULT_VEHTYPE" speedFactor="1.17" vaporized=""/>
    <tripinfo id="75" depart="89.00" departLane="54o_0" departPos="5.10" departSpeed="0.00" departDelay="-0.25" arrival="149.00" arrivalLane="53i_1" arrivalPos="10.00" arrivalSpeed="18.44" duration="60.00" routeLength="615.10" waitingTime="8.00" waitingCount="1" stopTime="0.00" timeLoss="27.67" rerouteNo="0" devices="tripinfo_75" vType="DEFAULT_VEHTYPE" speedFactor="0.98" vaporized=""/>
    <tripinfo id="24" depart="31.00" departLane="54o_0" departPos="5.10" departSpeed="0.00" departDelay="2.44" arrival="151.00" arrivalLane="51i_0" arrivalPos="10.00" arrivalSpeed="15.91" duration="120.00" routeLength="596.93" waitingTime="67.00" waitingCount="1" stopTime="0.00" timeLoss="81.42" rerouteNo="0" devices="tripinfo_24" vType="DEFAULT_VEHTYPE" speedFactor="0.83" vaporized=""/>
    <tripinfo id="36" depart="45.00" departLane="54o_0" departPos="5.10" departSpeed="0.00" departDelay="2.16" arrival="153.00" arrivalLane="52i_0" arrivalPos="10.00" arrivalSpeed="18.11" duration="108.00" routeLength="617.75" waitingTime="59.00" waitingCount="1" stopTime="0.00" timeLoss="73.65" rerouteNo="0" devices="tripinfo_36" vType="DEFAULT_VEHTYPE" speedFactor="0.97" vaporized=""/>
    <tripinfo id="49" depart="60.00" departLane="54o_0" departPos="5.10" departSpeed="0.00" departDelay="1.69" arrival="154.00" arrivalLane="53i_0" arrivalPos="10.00" arrivalSpeed="16.11" duration="94.00" routeLength="615.10" waitingTime="39.00" waitingCount="1" stopTime="0.00" timeLoss="56.10" rerouteNo="0" devices="tripinfo_49" vType="DEFAULT_VEHTYPE" speedFactor="0.85" vaporized=""/>
    <tripinfo id="27" depart="32.00" departLane="52o_0" departPos="5.10" departSpeed="0.00" departDelay="-0.13" arrival="158.00" arrivalLane="51i_0" arrivalPos="10.00" arrivalSpeed="17.17" duration="126.00" routeLength="615.10" waitingTime="79.00" waitingCount="1" stopTime="0.00" timeLoss="92.08" rerouteNo="0" devices="tripinfo_27" vType="DEFAULT_VEHTYPE" speedFactor="0.95" vaporized=""/>
    <tripinfo id="28" depart="35.00" departLane="52o_0" departPos="5.10" departSpeed="0.00" departDelay="1.68" arrival="158.00" arrivalLane="54i_0" arrivalPos="10.00" arrivalSpeed="20.83" duration="123.00" routeLength="596.93" waitingTime="78.00" waitingCount="1" stopTime="0.00" timeLoss="94.50" rerouteNo="0" devices="tripinfo_28" vType="DEFAULT_VEHTYPE" speedFactor="1.13" vaporized=""/>
    <tripinfo id="47" depart="57.00" departLane="52o_0" departPos="5.10" departSpeed="0.00" departDelay="1.07" arrival="158.00" arrivalLane="51i_1" arrivalPos="10.00" arrivalSpeed="16.63" duration="101.00" routeLength="615.10" waitingTime="53.00" waitingCount="1" stopTime="0.00" timeLoss="65.44" rerouteNo="0" devices="tripinfo_47" vType="DEFAULT_VEHTYPE" speedFactor="0.90" vaporized=""/>
    <tripinfo id="17" depart="20.00" departLane="52o_0" departPos="5.10" departSpeed="0.00" departDelay="-0.23" arrival="159.00" arrivalLane="53i_0" arrivalPos="10.00" arrivalSpeed="17.87" duration="139.00" routeLength="617.75" waitingTime="92.00" waitingCount="1" stopTime="0.00" timeLoss="103.37" rerouteNo="0" devices="tripinfo_17" vType="DEFAULT_VEHTYPE" speedFactor="0.94" vaporized=""/>
    <tripinfo id="51" depart="60.00" departLane="52o_0" departPos="5.10" departSpeed="0.00" departDelay="-0.69" arrival="160.00" arrivalLane="54i_0" arrivalPos="10.00" arrivalSpeed="22.31" duration="100.00" routeLength="596.93" waitingTime="54.00" waitingCount="1" stopTime="0.00" timeLoss="72.47" rerouteNo="0" devices="tripinfo_51" vType="DEFAULT_VEHTYPE" speedFactor="1.17" vaporized=""/>
    <tripinfo id="85" depart="101.00" departLane="52o_0" departPos="5.10" departSpeed="0.00" departDelay="-0.15" arrival="160.00" arrivalLane="51i_1" arrivalPos="10.00" arrivalSpeed="17.88" duration="59.00" routeLength="615.10" waitingTime="9.00" waitingCount="1" stopTime="0.00" timeLoss="25.68" rerouteNo="0" devices="tripinfo_85" vType="DEFAULT_VEHTYPE" speedFactor="0.98" vaporized=""/>
    <tripinfo id="18" depart="23.00" departLane="52o_0" departPos="5.10" departSpeed="0.00" departDelay="1.58" arrival="161.00" arrivalLane="53i_0" arrivalPos="10.00" arrivalSpeed="17.54" duration="138.00" routeLength="617.75" waitingTime="91.00" waitingCount="1" stopTime="0.00" timeLoss="101.92" rerouteNo="0" devices="tripinfo_18" vType="DEFAULT_VEHTYPE" speedFactor="0.94" vaporized=""/>
    <tripinfo id="46" depart="54.00" departLane="52o_0" departPos="5.10" departSpeed="0.00" departDelay="-0.74" arrival="163.00" arrivalLane="53i_0" arrivalPos="10.00" arrivalSpeed="19.04" duration="109.00" routeLength="617.75" waitingTime="60.00" waitingCount="1" stopTime="0.00" timeLoss="75.32" rerouteNo="0" devices="tripinfo_46" vType="DEFAULT_VEHTYPE" speedFactor="1.00" vaporized=""/>
    <tripinfo id="58" depart="69.00" departLane="52o_0" departPos="5.10" departSpeed="0.00" departDelay="-0.02" arrival="164.00" arrivalLane="54i_0" arrivalPos="10.00" arrivalSpeed="19.12" duration="95.00" routeLength="596.93" waitingTime="48.00" waitingCount="1" stopTime="0.00" timeLoss="63.22" rerouteNo="0" devices="tripinfo_58" vType="DEFAULT_VEHTYPE" speedFactor="1.02" vaporized=""/>
    <tripinfo id="64" depart="76.00" departLane="52o_0" departPos="5.10" departSpeed="0.00" departDelay="-0.16" arrival="165.00" arrivalLane="53i_0" arrivalPos="10.00" arrivalSpeed="17.59" duration="89.00" routeLength="617.75" waitingTime="39.00" waitingCount="1" stopTime="0.00" timeLoss="53.80" rerouteNo="0" devices="tripinfo_64" vType="DEFAULT_VEHTYPE" speedFactor="0.94" vaporized=""/>
    <tripinfo id="104" depart="123.00" departLane="52o_0" departPos="5.10" departSpeed="0.00" departDelay="-0.76" arrival="167.00" arrivalLane="51i_1" arrivalPos="10.00" arrivalSpeed="16.24" duration="44.00" routeLength="615.10" waitingTime="0.00" waitingCount="0" stopTime="0.00" timeLoss="8.55" rerouteNo="0" devices="tripinfo_104" vType="DEFAULT_VEHTYPE" speedFactor="0.89" vaporized=""/>
    <tripinfo id="67" depart="82.00" departLane="52o_0" departPos="5.10" departSpeed="0.00" departDelay="2.27" arrival="168.00" arrivalLane="53i_0" arrivalPos="10.00" arrivalSpeed="16.80" duration="86.00" routeLength="617.75" waitingTime="34.00" waitingCount="1" stopTime="0.00" timeLoss="49.90" rerouteNo="0" devices="tripinfo_67" vType="DEFAULT_VEHTYPE" speedFactor="0.91" vaporized=""/>
    <tripinfo id="65" depart="79.00" departLane="52o_0" departPos="5.10" departSpeed="0.00" departDelay="1.65" arrival="169.00" arrivalLane="54i_0" arrivalPos="10.00" arrivalSpeed="16.88" duration="90.00" routeLength="596.93" waitingTime="35.00" waitingCount="1" stopTime="0.00" timeLoss="53.32" rerouteNo="0" devices="tripinfo_65" vType="DEFAULT_VEHTYPE" speedFactor="0.88" vaporized=""/>
    <tripinfo id="71" depart="85.00" departLane="52o_0" departPos="5.10" departSpeed="0.00" departDelay="0.51" arrival="170.00" arrivalLane="53i_0" arrivalPos="10.00" arrivalSpeed="18.04" duration="85.00" routeLength="617.75" waitingTime="34.00" waitingCount="1" stopTime="0.00" timeLoss="50.65" rerouteNo="0" devices="tripinfo_71" vType="DEFAULT_VEHTYPE" speedFactor="0.97" vaporized=""/>
    <tripinfo id="82" depart="97.00" departLane="52o_0" departPos="5.10" departSpeed="0.00" departDelay="-0.58" arrival="170.00" arrivalLane="54i_0" arrivalPos="10.00" arrivalSpeed="17.78" duration="73.00" routeLength="596.93" waitingTime="22.00" waitingCount="1" stopTime="0.00" timeLoss="42.16" rerouteNo="0" devices="tripinfo_82" vType="DEFAULT_VEHTYPE" speedFactor="1.02" vaporized=""/>
    <tripinfo id="112" depart="133.00" departLane="52o_0" departPos="5.10" departSpeed="0.00" departDelay="-0.28" arrival="171.00" arrivalLane="51i_1" arrivalPos="10.00" arrivalSpeed="21.20" duration="38.00" routeLength="615.10" waitingTime="0.00" waitingCount="0" stopTime="0.00" timeLoss="8.81" rerouteNo="0" devices="tripinfo_112" vType="DEFAULT_VEHTYPE" speedFactor="1.10" vaporized=""/>
    <tripinfo id="78" depart="92.00" departLane="52o_0" departPos="5.10" departSpeed="0.00" departDelay="-0.82" arrival="172.00" arrivalLane="53i_0" arrivalPos="10.00" arrivalSpeed="18.83" duration="80.00" routeLength="617.75" waitingTime="29.00" waitingCount="1" stopTime="0.00" timeLoss="46.53" rerouteNo="0" devices="tripinfo_78" vType="DEFAULT_VEHTYPE" speedFactor="1.01" vaporized=""/>
    <tripinfo id="114" depart="136.00" departLane="52o_0" departPos="5.10" departSpeed="0.00" departDelay="0.34" arrival="174.00" arrivalLane="51i_1" arrivalPos="10.00" arrivalSpeed="21.16" duration="38.00" routeLength="615.10" waitingTime="0.00" waitingCount="0" stopTime="0.00" timeLoss="8.97" rerouteNo="0" devices="tripinfo_114" vType="DEFAULT_VEHTYPE" speedFactor="1.10" vaporized=""/>
    <tripinfo id="92" depart="109.00" departLane="52o_0" departPos="5.10" departSpeed="0.00" departDelay="-0.48" arrival="175.00" arrivalLane="54i_0" arrivalPos="10.00" arrivalSpeed="15.38" duration="66.00" routeLength="596.93" waitingTime="11.00" waitingCount="1" stopTime="0.00" timeLoss="27.55" rerouteNo="0" devices="tripinfo_92" vType="DEFAULT_VEHTYPE" speedFactor="0.83" vaporized=""/>
    <tripinfo id="93" depart="112.00" departLane="52o_0" departPos="5.10" departSpeed="0.00" departDelay="1.33" arrival="175.00" arrivalLane="53i_0" arrivalPos="10.00" arrivalSpeed="17.43" duration="63.00" routeLength="617.75" waitingTime="8.00" waitingCount="1" stopTime="0.00" timeLoss="27.03" rerouteNo="0" devices="tripinfo_93" vType="DEFAULT_VEHTYPE" speedFactor="0.92" vaporized=""/>
    <tripinfo id="94" depart="115.00" departLane="52o_0" departPos="5.10" departSpeed="0.00" departDelay="3.14" arrival="177.00" arrivalLane="53i_0" arrivalPos="10.00" arrivalSpeed="20.03" duration="62.00" routeLength="617.75" waitingTime="8.00" waitingCount="1" stopTime="0.00" timeLoss="30.99" rerouteNo="0" devices="tripinfo_94" vType="DEFAULT_VEHTYPE" speedFactor="1.09" vaporized=""/>
    <tripinfo id="96" depart="118.00" departLane="52o_0" departPos="5.10" departSpeed="0.00" departDelay="3.76" arrival="178.00" arrivalLane="53i_0" arrivalPos="10.00" arrivalSpeed="19.14" duration="60.00" routeLength="617.75" waitingTime="6.00" waitingCount="1" stopTime="0.00" timeLoss="27.30" rerouteNo="0" devices="tripinfo_96" vType="DEFAULT_VEHTYPE" speedFactor="1.01" vaporized=""/>
    <tripinfo id="109" depart="129.00" departLane="52o_0" departPos="5.10" departSpeed="0.00" departDelay="-0.71" arrival="178.00" arrivalLane="51i_1" arrivalPos="10.00" arrivalSpeed="18.01" duration="49.00" routeLength="615.10" waitingTime="0.00" waitingCount="0" stopTime="0.00" timeLoss="15.68" rerouteNo="0" devices="tripinfo_109" vType="DEFAULT_VEHTYPE" speedFactor="0.96" vaporized=""/>
    <tripinfo id="117" depart="140.00" departLane="52o_0" departPos="5.10" departSpeed="0.00" departDelay="0.77" arrival="179.00" arrivalLane="51i_2" arrivalPos="10.00" arrivalSpeed="19.52" duration="39.00" routeLength="615.10" waitingTime="0.00" waitingCount="0" stopTime="0.00" timeLoss="7.15" rerouteNo="0" devices="tripinfo_117" vType="DEFAULT_VEHTYPE" speedFactor="1.00" vaporized=""/>
    <tripinfo id="121" depart="143.00" departLane="52o_0" departPos="5.10" departSpeed="0.00" departDelay="-0.99" arrival="181.00" arrivalLane="51i_2" arrivalPos="10.00" arrivalSpeed="16.85" duration="38.00" routeLength="615.10" waitingTime="0.00" waitingCount="0" stopTime="0.00" timeLoss="8.67" rerouteNo="0" devices="tripinfo_121" vType="DEFAULT_VEHTYPE" speedFactor="1.10" vaporized=""/>