<?xml version="1.0" encoding="UTF-8"?>

<!-- generated on Sat Nov  9 00:36:54 2019 by Eclipse SUMO Version 1.2.0
<configuration xmlns:xsi="http://www.w3.org/2001/XMLSchema-instance" xsi:noNamespaceSchemaLocation="http://sumo.dlr.de/xsd/sumoConfiguration.xsd">

    <input>
        <net-file value="simulation_files/sumocfgs/../networks/isolated_3_lanes_4_stages.net.xml"/>
        <route-files value="simulation_files/sumocfgs/../routes/isolated_3_lanes_60p.rou.xml"/>
    </input>

    <output>
        <tripinfo-output value="./output/exp21_rf_60p/throughput_pwtl__3_tripinfo_isolated.xml"/>
    </output>

    <time>
        <begin value="0"/>
        <step-length value="1"/>
    </time>

    <report>
        <verbose value="true"/>
        <no-step-log value="true"/>
    </report>

    <gui_only>
        <tracker-interval value="1"/>
    </gui_only>

</configuration>
-->

<tripinfos xmlns:xsi="http://www.w3.org/2001/XMLSchema-instance" xsi:noNamespaceSchemaLocation="http://sumo.dlr.de/xsd/tripinfo_file.xsd">
    <tripinfo id="1" depart="1.00" departLane="54o_0" departPos="5.10" departSpeed="0.00" departDelay="-0.19" arrival="40.00" arrivalLane="53i_0" arrivalPos="10.00" arrivalSpeed="17.14" duration="39.00" routeLength="615.10" waitingTime="0.00" waitingCount="0" stopTime="0.00" timeLoss="5.09" rerouteNo="0" devices="tripinfo_1" vType="DEFAULT_VEHTYPE" speedFactor="0.94" vaporized=""/>
    <tripinfo id="0" depart="0.00" departLane="52o_0" departPos="5.10" departSpeed="0.00" departDelay="0.00" arrival="47.00" arrivalLane="53i_0" arrivalPos="10.00" arrivalSpeed="20.00" duration="47.00" routeLength="617.75" waitingTime="2.00" waitingCount="1" stopTime="0.00" timeLoss="15.40" rerouteNo="0" devices="tripinfo_0" vType="DEFAULT_VEHTYPE" speedFactor="1.06" vaporized=""/>
    <tripinfo id="5" depart="5.00" departLane="52o_0" departPos="5.10" departSpeed="0.00" departDelay="-0.95" arrival="49.00" arrivalLane="51i_0" arrivalPos="10.00" arrivalSpeed="15.14" duration="44.00" routeLength="615.10" waitingTime="0.00" waitingCount="0" stopTime="0.00" timeLoss="5.00" rerouteNo="0" devices="tripinfo_5" vType="DEFAULT_VEHTYPE" speedFactor="0.83" vaporized=""/>
    <tripinfo id="9" depart="10.00" departLane="52o_0" departPos="5.10" departSpeed="0.00" departDelay="-0.71" arrival="55.00" arrivalLane="54i_0" arrivalPos="10.00" arrivalSpeed="16.48" duration="45.00" routeLength="596.93" waitingTime="0.00" waitingCount="0" stopTime="0.00" timeLoss="7.78" rerouteNo="0" devices="tripinfo_9" vType="DEFAULT_VEHTYPE" speedFactor="0.86" vaporized=""/>
    <tripinfo id="17" depart="20.00" departLane="52o_0" departPos="5.10" departSpeed="0.00" departDelay="-0.23" arrival="64.00" arrivalLane="53i_0" arrivalPos="10.00" arrivalSpeed="17.02" duration="44.00" routeLength="617.75" waitingTime="0.00" waitingCount="0" stopTime="0.00" timeLoss="8.82" rerouteNo="0" devices="tripinfo_17" vType="DEFAULT_VEHTYPE" speedFactor="0.94" vaporized=""/>
    <tripinfo id="18" depart="23.00" departLane="52o_0" departPos="5.10" departSpeed="0.00" departDelay="1.58" arrival="66.00" arrivalLane="53i_0" arrivalPos="10.00" arrivalSpeed="17.45" duration="43.00" routeLength="617.75" waitingTime="0.00" waitingCount="0" stopTime="0.00" timeLoss="7.41" rerouteNo="0" devices="tripinfo_18" vType="DEFAULT_VEHTYPE" speedFactor="0.94" vaporized=""/>
    <tripinfo id="27" depart="32.00" departLane="52o_0" departPos="5.10" departSpeed="0.00" departDelay="-0.13" arrival="70.00" arrivalLane="51i_0" arrivalPos="10.00" arrivalSpeed="18.00" duration="38.00" routeLength="615.10" waitingTime="0.00" waitingCount="0" stopTime="0.00" timeLoss="4.64" rerouteNo="0" devices="tripinfo_27" vType="DEFAULT_VEHTYPE" speedFactor="0.95" vaporized=""/>
    <tripinfo id="28" depart="35.00" departLane="52o_0" departPos="5.10" departSpeed="0.00" departDelay="1.68" arrival="74.00" arrivalLane="54i_0" arrivalPos="10.00" arrivalSpeed="21.50" duration="39.00" routeLength="596.93" waitingTime="0.00" waitingCount="0" stopTime="0.00" timeLoss="10.58" rerouteNo="0" devices="tripinfo_28" vType="DEFAULT_VEHTYPE" speedFactor="1.13" vaporized=""/>
    <tripinfo id="46" depart="54.00" departLane="52o_0" departPos="5.10" departSpeed="0.00" departDelay="-0.74" arrival="96.00" arrivalLane="53i_0" arrivalPos="10.00" arrivalSpeed="19.34" duration="42.00" routeLength="617.75" waitingTime="0.00" waitingCount="0" stopTime="0.00" timeLoss="8.49" rerouteNo="0" devices="tripinfo_46" vType="DEFAULT_VEHTYPE" speedFactor="1.00" vaporized=""/>
    <tripinfo id="47" depart="57.00" departLane="52o_0" departPos="5.10" departSpeed="0.00" departDelay="1.07" arrival="98.00" arrivalLane="51i_0" arrivalPos="10.00" arrivalSpeed="16.39" duration="41.00" routeLength="615.10" waitingTime="0.00" waitingCount="0" stopTime="0.00" timeLoss="5.72" rerouteNo="0" devices="tripinfo_47" vType="DEFAULT_VEHTYPE" speedFactor="0.90" vaporized=""/>
    <tripinfo id="51" depart="60.00" departLane="52o_0" departPos="5.10" departSpeed="0.00" departDelay="-0.69" arrival="99.00" arrivalLane="54i_0" arrivalPos="10.00" arrivalSpeed="22.16" duration="39.00" routeLength="596.93" waitingTime="0.00" waitingCount="0" stopTime="0.00" timeLoss="11.92" rerouteNo="0" devices="tripinfo_51" vType="DEFAULT_VEHTYPE" speedFactor="1.17" vaporized=""/>
    <tripinfo id="4" depart="4.00" departLane="53o_0" departPos="5.10" departSpeed="0.00" departDelay="-0.76" arrival="106.00" arrivalLane="51i_0" arrivalPos="10.00" arrivalSpeed="19.47" duration="102.00" routeLength="617.75" waitingTime="59.00" waitingCount="1" stopTime="0.00" timeLoss="70.09" rerouteNo="0" devices="tripinfo_4" vType="DEFAULT_VEHTYPE" speedFactor="1.03" vaporized=""/>
    <tripinfo id="32" depart="41.00" departLane="53o_0" departPos="5.10" departSpeed="0.00" departDelay="2.92" arrival="106.00" arrivalLane="54i_0" arrivalPos="10.00" arrivalSpeed="18.55" duration="65.00" routeLength="615.10" waitingTime="19.00" waitingCount="1" stopTime="0.00" timeLoss="32.91" rerouteNo="0" devices="tripinfo_32" vType="DEFAULT_VEHTYPE" speedFactor="1.01" vaporized=""/>
    <tripinfo id="23" depart="27.00" departLane="53o_0" departPos="5.10" departSpeed="0.00" departDelay="-0.37" arrival="108.00" arrivalLane="54i_0" arrivalPos="10.00" arrivalSpeed="17.04" duration="81.00" routeLength="615.10" waitingTime="33.00" waitingCount="1" stopTime="0.00" timeLoss="44.77" rerouteNo="0" devices="tripinfo_23" vType="DEFAULT_VEHTYPE" speedFactor="0.89" vaporized=""/>
    <tripinfo id="13" depart="15.00" departLane="53o_0" departPos="5.10" departSpeed="0.00" departDelay="-0.47" arrival="109.00" arrivalLane="51i_0" arrivalPos="10.00" arrivalSpeed="21.61" duration="94.00" routeLength="617.75" waitingTime="49.00" waitingCount="1" stopTime="0.00" timeLoss="64.08" rerouteNo="0" devices="tripinfo_13" vType="DEFAULT_VEHTYPE" speedFactor="1.12" vaporized=""/>
    <tripinfo id="26" depart="30.00" departLane="53o_0" departPos="5.10" departSpeed="0.00" departDelay="-0.94" arrival="109.00" arrivalLane="52i_0" arrivalPos="10.00" arrivalSpeed="17.07" duration="79.00" routeLength="596.93" waitingTime="32.00" waitingCount="1" stopTime="0.00" timeLoss="44.21" rerouteNo="0" devices="tripinfo_26" vType="DEFAULT_VEHTYPE" speedFactor="0.92" vaporized=""/>
    <tripinfo id="39" depart="47.00" departLane="53o_0" departPos="5.10" departSpeed="0.00" departDelay="0.59" arrival="109.00" arrivalLane="54i_1" arrivalPos="10.00" arrivalSpeed="16.48" duration="62.00" routeLength="615.10" waitingTime="16.00" waitingCount="1" stopTime="0.00" timeLoss="26.54" rerouteNo="0" devices="tripinfo_39" vType="DEFAULT_VEHTYPE" speedFactor="0.90" vaporized=""/>
    <tripinfo id="30" depart="35.00" departLane="53o_0" departPos="5.10" departSpeed="0.00" departDelay="-0.70" arrival="111.00" arrivalLane="52i_0" arrivalPos="10.00" arrivalSpeed="19.83" duration="76.00" routeLength="596.93" waitingTime="29.00" waitingCount="1" stopTime="0.00" timeLoss="48.87" rerouteNo="0" devices="tripinfo_30" vType="DEFAULT_VEHTYPE" speedFactor="1.18" vaporized=""/>
    <tripinfo id="53" depart="64.00" departLane="53o_0" departPos="5.10" departSpeed="0.00" departDelay="0.93" arrival="111.00" arrivalLane="54i_1" arrivalPos="10.00" arrivalSpeed="20.59" duration="47.00" routeLength="615.10" waitingTime="0.00" waitingCount="0" stopTime="0.00" timeLoss="17.22" rerouteNo="0" devices="tripinfo_53" vType="DEFAULT_VEHTYPE" speedFactor="1.10" vaporized=""/>
    <tripinfo id="20" depart="23.00" departLane="53o_0" departPos="5.10" departSpeed="0.00" departDelay="-0.80" arrival="112.00" arrivalLane="51i_0" arrivalPos="10.00" arrivalSpeed="18.80" duration="89.00" routeLength="617.75" waitingTime="41.00" waitingCount="1" stopTime="0.00" timeLoss="56.03" rerouteNo="0" devices="tripinfo_20" vType="DEFAULT_VEHTYPE" speedFactor="1.02" vaporized=""/>
    <tripinfo id="31" depart="38.00" departLane="53o_0" departPos="5.10" departSpeed="0.00" departDelay="1.11" arrival="112.00" arrivalLane="52i_0" arrivalPos="10.00" arrivalSpeed="20.03" duration="74.00" routeLength="596.93" waitingTime="27.00" waitingCount="1" stopTime="0.00" timeLoss="46.77" rerouteNo="0" devices="tripinfo_31" vType="DEFAULT_VEHTYPE" speedFactor="1.15" vaporized=""/>
    <tripinfo id="54" depart="67.00" departLane="53o_0" departPos="5.10" departSpeed="0.00" departDelay="2.74" arrival="112.00" arrivalLane="54i_1" arrivalPos="10.00" arrivalSpeed="18.66" duration="45.00" routeLength="615.10" waitingTime="0.00" waitingCount="0" stopTime="0.00" timeLoss="13.09" rerouteNo="0" devices="tripinfo_54" vType="DEFAULT_VEHTYPE" speedFactor="1.00" vaporized=""/>
    <tripinfo id="37" depart="44.00" departLane="53o_0" departPos="5.10" departSpeed="0.00" departDelay="-0.03" arrival="113.00" arrivalLane="51i_0" arrivalPos="10.00" arrivalSpeed="22.81" duration="69.00" routeLength="617.75" waitingTime="22.00" waitingCount="1" stopTime="0.00" timeLoss="41.17" rerouteNo="0" devices="tripinfo_37" vType="DEFAULT_VEHTYPE" speedFactor="1.18" vaporized=""/>
    <tripinfo id="60" depart="76.00" departLane="53o_0" departPos="5.10" departSpeed="0.00" departDelay="4.60" arrival="114.00" arrivalLane="54i_1" arrivalPos="10.00" arrivalSpeed="20.78" duration="38.00" routeLength="615.10" waitingTime="0.00" waitingCount="0" stopTime="0.00" timeLoss="7.93" rerouteNo="0" devices="tripinfo_60" vType="DEFAULT_VEHTYPE" speedFactor="1.08" vaporized=""/>
    <tripinfo id="43" depart="53.00" departLane="53o_0" departPos="5.10" departSpeed="0.00" departDelay="1.83" arrival="115.00" arrivalLane="52i_0" arrivalPos="10.00" arrivalSpeed="20.10" duration="62.00" routeLength="596.93" waitingTime="14.00" waitingCount="1" stopTime="0.00" timeLoss="31.40" rerouteNo="0" devices="tripinfo_43" vType="DEFAULT_VEHTYPE" speedFactor="1.04" vaporized=""/>
    <tripinfo id="40" depart="50.00" departLane="53o_0" departPos="5.10" departSpeed="0.00" departDelay="2.40" arrival="117.00" arrivalLane="51i_0" arrivalPos="10.00" arrivalSpeed="19.68" duration="67.00" routeLength="617.75" waitingTime="17.00" waitingCount="1" stopTime="0.00" timeLoss="34.39" rerouteNo="0" devices="tripinfo_40" vType="DEFAULT_VEHTYPE" speedFactor="1.03" vaporized=""/>
    <tripinfo id="62" depart="79.00" departLane="53o_0" departPos="5.10" departSpeed="0.00" departDelay="5.22" arrival="117.00" arrivalLane="54i_1" arrivalPos="10.00" arrivalSpeed="18.47" duration="38.00" routeLength="615.10" waitingTime="0.00" waitingCount="0" stopTime="0.00" timeLoss="6.26" rerouteNo="0" devices="tripinfo_62" vType="DEFAULT_VEHTYPE" speedFactor="1.02" vaporized=""/>
    <tripinfo id="44" depart="56.00" departLane="53o_0" departPos="5.10" departSpeed="0.00" departDelay="3.64" arrival="118.00" arrivalLane="52i_0" arrivalPos="10.00" arrivalSpeed="19.01" duration="62.00" routeLength="596.93" waitingTime="12.00" waitingCount="1" stopTime="0.00" timeLoss="30.64" rerouteNo="0" devices="tripinfo_44" vType="DEFAULT_VEHTYPE" speedFactor="1.04" vaporized=""/>
    <tripinfo id="52" depart="61.00" departLane="53o_0" departPos="5.10" departSpeed="0.00" departDelay="-0.88" arrival="119.00" arrivalLane="51i_0" arrivalPos="10.00" arrivalSpeed="19.47" duration="58.00" routeLength="617.75" waitingTime="7.00" waitingCount="1" stopTime="0.00" timeLoss="25.54" rerouteNo="0" devices="tripinfo_52" vType="DEFAULT_VEHTYPE" speedFactor="1.02" vaporized=""/>
    <tripinfo id="55" depart="70.00" departLane="53o_0" departPos="5.10" departSpeed="0.00" departDelay="4.55" arrival="121.00" arrivalLane="52i_0" arrivalPos="10.00" arrivalSpeed="18.20" duration="51.00" routeLength="596.93" waitingTime="0.00" waitingCount="0" stopTime="0.00" timeLoss="18.82" rerouteNo="0" devices="tripinfo_55" vType="DEFAULT_VEHTYPE" speedFactor="1.00" vaporized=""/>
    <tripinfo id="57" depart="73.00" departLane="53o_0" departPos="5.10" departSpeed="0.00" departDelay="5.17" arrival="121.00" arrivalLane="51i_0" arrivalPos="10.00" arrivalSpeed="21.82" duration="48.00" routeLength="617.75" waitingTime="0.00" waitingCount="0" stopTime="0.00" timeLoss="18.58" rerouteNo="0" devices="tripinfo_57" vType="DEFAULT_VEHTYPE" speedFactor="1.14" vaporized=""/>
    <tripinfo id="63" depart="82.00" departLane="53o_0" departPos="5.10" departSpeed="0.00" departDelay="7.03" arrival="124.00" arrivalLane="52i_0" arrivalPos="10.00" arrivalSpeed="19.13" duration="42.00" routeLength="596.93" waitingTime="0.00" waitingCount="0" stopTime="0.00" timeLoss="9.08" rerouteNo="0" devices="tripinfo_63" vType="DEFAULT_VEHTYPE" speedFactor="0.99" vaporized=""/>
    <tripinfo id="68" depart="88.00" departLane="53o_0" departPos="5.10" departSpeed="0.00" departDelay="7.08" arrival="125.00" arrivalLane="54i_1" arrivalPos="10.00" arrivalSpeed="19.01" duration="37.00" routeLength="615.10" waitingTime="0.00" waitingCount="0" stopTime="0.00" timeLoss="5.67" rerouteNo="0" devices="tripinfo_68" vType="DEFAULT_VEHTYPE" speedFactor="1.04" vaporized=""/>
    <tripinfo id="66" depart="85.00" departLane="53o_0" departPos="5.10" departSpeed="0.00" departDelay="6.46" arrival="129.00" arrivalLane="52i_0" arrivalPos="10.00" arrivalSpeed="17.45" duration="44.00" routeLength="596.93" waitingTime="0.00" waitingCount="0" stopTime="0.00" timeLoss="8.79" rerouteNo="0" devices="tripinfo_66" vType="DEFAULT_VEHTYPE" speedFactor="0.91" vaporized=""/>
    <tripinfo id="73" depart="91.00" departLane="53o_0" departPos="5.10" departSpeed="0.00" departDelay="4.13" arrival="132.00" arrivalLane="51i_0" arrivalPos="10.00" arrivalSpeed="19.69" duration="41.00" routeLength="617.75" waitingTime="0.00" waitingCount="0" stopTime="0.00" timeLoss="9.38" rerouteNo="0" devices="tripinfo_73" vType="DEFAULT_VEHTYPE" speedFactor="1.06" vaporized=""/>
    <tripinfo id="77" depart="94.00" departLane="53o_0" departPos="5.10" departSpeed="0.00" departDelay="2.37" arrival="136.00" arrivalLane="51i_0" arrivalPos="10.00" arrivalSpeed="18.63" duration="42.00" routeLength="617.75" waitingTime="0.00" waitingCount="0" stopTime="0.00" timeLoss="7.75" rerouteNo="0" devices="tripinfo_77" vType="DEFAULT_VEHTYPE" speedFactor="0.98" vaporized=""/>
    <tripinfo id="79" depart="97.00" departLane="53o_0" departPos="5.10" departSpeed="0.00" departDelay="2.99" arrival="136.00" arrivalLane="52i_0" arrivalPos="10.00" arrivalSpeed="20.22" duration="39.00" routeLength="596.93" waitingTime="0.00" waitingCount="0" stopTime="0.00" timeLoss="9.26" rerouteNo="0" devices="tripinfo_79" vType="DEFAULT_VEHTYPE" speedFactor="1.09" vaporized=""/>
    <tripinfo id="80" depart="100.00" departLane="53o_0" departPos="5.10" departSpeed="0.00" departDelay="4.80" arrival="137.00" arrivalLane="54i_1" arrivalPos="10.00" arrivalSpeed="20.00" duration="37.00" routeLength="615.10" waitingTime="0.00" waitingCount="0" stopTime="0.00" timeLoss="5.71" rerouteNo="0" devices="tripinfo_80" vType="DEFAULT_VEHTYPE" speedFactor="1.03" vaporized=""/>
    <tripinfo id="81" depart="103.00" departLane="53o_0" departPos="5.10" departSpeed="0.00" departDelay="6.61" arrival="141.00" arrivalLane="54i_0" arrivalPos="10.00" arrivalSpeed="18.39" duration="38.00" routeLength="615.10" waitingTime="0.00" waitingCount="0" stopTime="0.00" timeLoss="5.89" rerouteNo="0" devices="tripinfo_81" vType="DEFAULT_VEHTYPE" speedFactor="1.00" vaporized=""/>
    <tripinfo id="88" depart="106.00" departLane="53o_0" departPos="5.10" departSpeed="0.00" departDelay="1.28" arrival="143.00" arrivalLane="54i_0" arrivalPos="10.00" arrivalSpeed="18.93" duration="37.00" routeLength="615.10" waitingTime="0.00" waitingCount="0" stopTime="0.00" timeLoss="5.28" rerouteNo="0" devices="tripinfo_88" vType="DEFAULT_VEHTYPE" speedFactor="1.01" vaporized=""/>
    <tripinfo id="90" depart="109.00" departLane="53o_0" departPos="5.10" departSpeed="0.00" departDelay="1.90" arrival="146.00" arrivalLane="54i_0" arrivalPos="10.00" arrivalSpeed="18.57" duration="37.00" routeLength="615.10" waitingTime="0.00" waitingCount="0" stopTime="0.00" timeLoss="5.70" rerouteNo="0" devices="tripinfo_90" vType="DEFAULT_VEHTYPE" speedFactor="1.02" vaporized=""/>
    <tripinfo id="98" depart="116.00" departLane="53o_0" departPos="5.10" departSpeed="0.00" departDelay="-0.62" arrival="155.00" arrivalLane="51i_0" arrivalPos="10.00" arrivalSpeed="20.63" duration="39.00" routeLength="617.75" waitingTime="0.00" waitingCount="0" stopTime="0.00" timeLoss="9.31" rerouteNo="0" devices="tripinfo_98" vType="DEFAULT_VEHTYPE" speedFactor="1.12" vaporized=""/>
    <tripinfo id="113" depart="134.00" departLane="53o_0" departPos="5.10" departSpeed="0.00" departDelay="-0.47" arrival="176.00" arrivalLane="51i_0" arrivalPos="10.00" arrivalSpeed="18.57" duration="42.00" routeLength="617.75" waitingTime="0.00" waitingCount="0" stopTime="0.00" timeLoss="8.42" rerouteNo="0" devices="tripinfo_113" vType="DEFAULT_VEHTYPE" speedFactor="1.01" vaporized=""/>
    <tripinfo id="115" depart="137.00" departLane="53o_0" departPos="5.10" departSpeed="0.00" departDelay="0.15" arrival="181.00" arrivalLane="51i_0" arrivalPos="10.00" arrivalSpeed="17.03" duration="44.00" routeLength="617.75" waitingTime="0.00" waitingCount="0" stopTime="0.00" timeLoss="7.98" rerouteNo="0" devices="tripinfo_115" vType="DEFAULT_VEHTYPE" speedFactor="0.92" vaporized=""/>
    <tripinfo id="130" depart="154.00" departLane="53o_0" departPos="5.10" departSpeed="0.00" departDelay="-0.70" arrival="194.00" arrivalLane="52i_0" arrivalPos="10.00" arrivalSpeed="18.97" duration="40.00" routeLength="596.93" waitingTime="0.00" waitingCount="0" stopTime="0.00" timeLoss="8.81" rerouteNo="0" devices="tripinfo_130" vType="DEFAULT_VEHTYPE" speedFactor="1.03" vaporized=""/>
    <tripinfo id="140" depart="166.00" departLane="53o_0" departPos="5.10" departSpeed="0.00" departDelay="-0.60" arrival="201.00" arrivalLane="54i_1" arrivalPos="10.00" arrivalSpeed="21.59" duration="35.00" routeLength="615.10" waitingTime="0.00" waitingCount="0" stopTime="0.00" timeLoss="5.90" rerouteNo="0" devices="tripinfo_140" vType="DEFAULT_VEHTYPE" speedFactor="1.11" vaporized=""/>
    <tripinfo id="137" depart="163.00" departLane="53o_0" departPos="5.10" departSpeed="0.00" departDelay="-0.03" arrival="204.00" arrivalLane="52i_0" arrivalPos="10.00" arrivalSpeed="18.73" duration="41.00" routeLength="596.93" waitingTime="0.00" waitingCount="0" stopTime="0.00" timeLoss="9.35" rerouteNo="0" devices="tripinfo_137" vType="DEFAULT_VEHTYPE" speedFactor="1.02" vaporized=""/>
    <tripinfo id="142" depart="169.00" departLane="53o_0" departPos="5.10" departSpeed="0.00" departDelay="0.02" arrival="208.00" arrivalLane="4o_0" arrivalPos="286.40" arrivalSpeed="17.57" duration="39.00" routeLength="605.00" waitingTime="0.00" waitingCount="0" stopTime="0.00" timeLoss="5.35" rerouteNo="0" devices="tripinfo_142" vType="DEFAULT_VEHTYPE" speedFactor="0.94" vaporized=""/>
    <tripinfo id="148" depart="176.00" departLane="53o_0" departPos="5.10" departSpeed="0.00" departDelay="-0.12" arrival="217.00" arrivalLane="51i_0" arrivalPos="10.00" arrivalSpeed="18.19" duration="41.00" routeLength="617.75" waitingTime="0.00" waitingCount="0" stopTime="0.00" timeLoss="7.34" rerouteNo="0" devices="tripinfo_148" vType="DEFAULT_VEHTYPE" speedFactor="0.97" vaporized=""/>
    <tripinfo id="3" depart="5.00" departLane="51o_0" departPos="5.10" departSpeed="0.00" departDelay="1.43" arrival="221.00" arrivalLane="52i_1" arrivalPos="10.00" arrivalSpeed="19.97" duration="216.00" routeLength="615.10" waitingTime="172.00" waitingCount="1" stopTime="0.00" timeLoss="186.51" rerouteNo="0" devices="tripinfo_3" vType="DEFAULT_VEHTYPE" speedFactor="1.08" vaporized=""/>
    <tripinfo id="2" depart="2.00" departLane="51o_0" departPos="5.10" departSpeed="0.00" departDelay="-0.38" arrival="222.00" arrivalLane="52i_0" arrivalPos="10.00" arrivalSpeed="19.58" duration="220.00" routeLength="615.10" waitingTime="175.00" waitingCount="1" stopTime="0.00" timeLoss="187.95" rerouteNo="0" devices="tripinfo_2" vType="DEFAULT_VEHTYPE" speedFactor="1.01" vaporized=""/>
    <tripinfo id="10" depart="12.00" departLane="51o_0" departPos="5.10" departSpeed="0.00" departDelay="0.10" arrival="223.00" arrivalLane="53i_0" arrivalPos="10.00" arrivalSpeed="20.02" duration="211.00" routeLength="596.93" waitingTime="167.00" waitingCount="1" stopTime="0.00" timeLoss="181.08" rerouteNo="0" devices="tripinfo_10" vType="DEFAULT_VEHTYPE" speedFactor="1.09" vaporized=""/>
    <tripinfo id="8" depart="9.00" departLane="51o_0" departPos="5.10" departSpeed="0.00" departDelay="-0.52" arrival="224.00" arrivalLane="54i_0" arrivalPos="10.00" arrivalSpeed="17.90" duration="215.00" routeLength="617.75" waitingTime="166.00" waitingCount="1" stopTime="0.00" timeLoss="179.28" rerouteNo="0" devices="tripinfo_8" vType="DEFAULT_VEHTYPE" speedFactor="0.94" vaporized=""/>
    <tripinfo id="14" depart="18.00" departLane="51o_0" departPos="5.10" departSpeed="0.00" departDelay="1.34" arrival="224.00" arrivalLane="52i_1" arrivalPos="10.00" arrivalSpeed="19.22" duration="206.00" routeLength="615.10" waitingTime="157.00" waitingCount="1" stopTime="0.00" timeLoss="173.55" rerouteNo="0" devices="tripinfo_14" vType="DEFAULT_VEHTYPE" speedFactor="0.99" vaporized=""/>
    <tripinfo id="12" depart="15.00" departLane="51o_0" departPos="5.10" departSpeed="0.00" departDelay="0.72" arrival="225.00" arrivalLane="54i_0" arrivalPos="10.00" arrivalSpeed="19.64" duration="210.00" routeLength="617.75" waitingTime="162.00" waitingCount="1" stopTime="0.00" timeLoss="178.34" rerouteNo="0" devices="tripinfo_12" vType="DEFAULT_VEHTYPE" speedFactor="1.05" vaporized=""/>
    <tripinfo id="34" depart="40.00" departLane="51o_0" departPos="5.10" departSpeed="0.00" departDelay="-0.46" arrival="226.00" arrivalLane="52i_1" arrivalPos="10.00" arrivalSpeed="19.27" duration="186.00" routeLength="615.10" waitingTime="137.00" waitingCount="1" stopTime="0.00" timeLoss="153.39" rerouteNo="0" devices="tripinfo_34" vType="DEFAULT_VEHTYPE" speedFactor="0.99" vaporized=""/>
    <tripinfo id="15" depart="21.00" departLane="51o_0" departPos="5.10" departSpeed="0.00" departDelay="3.15" arrival="228.00" arrivalLane="53i_0" arrivalPos="10.00" arrivalSpeed="17.06" duration="207.00" routeLength="596.93" waitingTime="159.00" waitingCount="1" stopTime="0.00" timeLoss="172.15" rerouteNo="0" devices="tripinfo_15" vType="DEFAULT_VEHTYPE" speedFactor="0.93" vaporized=""/>
    <tripinfo id="25" depart="29.00" departLane="51o_0" departPos="5.10" departSpeed="0.00" departDelay="-0.75" arrival="228.00" arrivalLane="52i_2" arrivalPos="10.00" arrivalSpeed="16.15" duration="199.00" routeLength="615.10" waitingTime="150.00" waitingCount="1" stopTime="0.00" timeLoss="162.33" rerouteNo="0" devices="tripinfo_25" vType="DEFAULT_VEHTYPE" speedFactor="0.87" vaporized=""/>
    <tripinfo id="41" depart="48.00" departLane="51o_0" departPos="5.10" departSpeed="0.00" departDelay="-0.79" arrival="229.00" arrivalLane="52i_1" arrivalPos="10.00" arrivalSpeed="18.00" duration="181.00" routeLength="615.10" waitingTime="129.00" waitingCount="1" stopTime="0.00" timeLoss="147.08" rerouteNo="0" devices="tripinfo_41" vType="DEFAULT_VEHTYPE" speedFactor="0.96" vaporized=""/>
    <tripinfo id="61" depart="72.00" departLane="51o_0" departPos="5.10" departSpeed="0.00" departDelay="-0.59" arrival="229.00" arrivalLane="53i_0" arrivalPos="10.00" arrivalSpeed="20.20" duration="157.00" routeLength="596.93" waitingTime="110.00" waitingCount="1" stopTime="0.00" timeLoss="128.57" rerouteNo="0" devices="tripinfo_61" vType="DEFAULT_VEHTYPE" speedFactor="1.12" vaporized=""/>
    <tripinfo id="42" depart="51.00" departLane="51o_0" departPos="5.10" departSpeed="0.00" departDelay="1.02" arrival="230.00" arrivalLane="52i_2" arrivalPos="10.00" arrivalSpeed="20.73" duration="179.00" routeLength="615.10" waitingTime="132.00" waitingCount="1" stopTime="0.00" timeLoss="149.46" rerouteNo="0" devices="tripinfo_42" vType="DEFAULT_VEHTYPE" speedFactor="1.09" vaporized=""/>
    <tripinfo id="59" depart="70.00" departLane="51o_0" departPos="5.10" departSpeed="0.00" departDelay="-0.21" arrival="230.00" arrivalLane="52i_1" arrivalPos="10.00" arrivalSpeed="17.82" duration="160.00" routeLength="615.10" waitingTime="109.00" waitingCount="1" stopTime="0.00" timeLoss="127.06" rerouteNo="0" devices="tripinfo_59" vType="DEFAULT_VEHTYPE" speedFactor="0.97" vaporized=""/>
    <tripinfo id="29" depart="34.00" departLane="51o_0" departPos="5.10" departSpeed="0.00" departDelay="-0.51" arrival="231.00" arrivalLane="54i_0" arrivalPos="10.00" arrivalSpeed="17.33" duration="197.00" routeLength="617.75" waitingTime="145.00" waitingCount="1" stopTime="0.00" timeLoss="161.06" rerouteNo="0" devices="tripinfo_29" vType="DEFAULT_VEHTYPE" speedFactor="0.93" vaporized=""/>
    <tripinfo id="95" depart="113.00" departLane="51o_0" departPos="5.10" departSpeed="0.00" departDelay="-0.05" arrival="231.00" arrivalLane="53i_0" arrivalPos="10.00" arrivalSpeed="20.12" duration="118.00" routeLength="596.93" waitingTime="71.00" waitingCount="1" stopTime="0.00" timeLoss="87.30" rerouteNo="0" devices="tripinfo_95" vType="DEFAULT_VEHTYPE" speedFactor="1.06" vaporized=""/>
    <tripinfo id="116" depart="138.00" departLane="51o_0" departPos="5.10" departSpeed="0.00" departDelay="-0.04" arrival="232.00" arrivalLane="52i_1" arrivalPos="10.00" arrivalSpeed="21.28" duration="94.00" routeLength="615.10" waitingTime="44.00" waitingCount="1" stopTime="0.00" timeLoss="66.34" rerouteNo="0" devices="tripinfo_116" vType="DEFAULT_VEHTYPE" speedFactor="1.18" vaporized=""/>
    <tripinfo id="99" depart="119.00" departLane="51o_0" departPos="5.10" departSpeed="0.00" departDelay="1.19" arrival="233.00" arrivalLane="53i_0" arrivalPos="10.00" arrivalSpeed="20.87" duration="114.00" routeLength="596.93" waitingTime="66.00" waitingCount="1" stopTime="0.00" timeLoss="85.27" rerouteNo="0" devices="tripinfo_99" vType="DEFAULT_VEHTYPE" speedFactor="1.10" vaporized=""/>
    <tripinfo id="129" depart="154.00" departLane="51o_0" departPos="5.10" departSpeed="0.00" departDelay="0.49" arrival="233.00" arrivalLane="52i_1" arrivalPos="10.00" arrivalSpeed="19.22" duration="79.00" routeLength="615.10" waitingTime="29.00" waitingCount="1" stopTime="0.00" timeLoss="47.33" rerouteNo="0" devices="tripinfo_129" vType="DEFAULT_VEHTYPE" speedFactor="1.01" vaporized=""/>
    <tripinfo id="50" depart="59.00" departLane="51o_0" departPos="5.10" departSpeed="0.00" departDelay="-0.50" arrival="237.00" arrivalLane="54i_0" arrivalPos="10.00" arrivalSpeed="16.43" duration="178.00" routeLength="617.75" waitingTime="123.00" waitingCount="1" stopTime="0.00" timeLoss="139.53" rerouteNo="0" devices="tripinfo_50" vType="DEFAULT_VEHTYPE" speedFactor="0.85" vaporized=""/>
    <tripinfo id="103" depart="122.00" departLane="51o_0" departPos="5.10" departSpeed="0.00" departDelay="-0.57" arrival="238.00" arrivalLane="53i_0" arrivalPos="10.00" arrivalSpeed="18.09" duration="116.00" routeLength="596.93" waitingTime="63.00" waitingCount="1" stopTime="0.00" timeLoss="81.84" rerouteNo="0" devices="tripinfo_103" vType="DEFAULT_VEHTYPE" speedFactor="0.95" vaporized=""/>
    <tripinfo id="69" depart="82.00" departLane="51o_0" departPos="5.10" departSpeed="0.00" departDelay="-0.11" arrival="239.00" arrivalLane="54i_0" arrivalPos="10.00" arrivalSpeed="19.76" duration="157.00" routeLength="617.75" waitingTime="103.00" waitingCount="1" stopTime="0.00" timeLoss="124.33" rerouteNo="0" devices="tripinfo_69" vType="DEFAULT_VEHTYPE" speedFactor="1.02" vaporized=""/>
    <tripinfo id="108" depart="130.00" departLane="51o_0" departPos="5.10" departSpeed="0.00" departDelay="1.48" arrival="239.00" arrivalLane="53i_0" arrivalPos="10.00" arrivalSpeed="19.50" duration="109.00" routeLength="596.93" waitingTime="58.00" waitingCount="1" stopTime="0.00" timeLoss="79.58" rerouteNo="0" devices="tripinfo_108" vType="DEFAULT_VEHTYPE" speedFactor="1.06" vaporized=""/>
    <tripinfo id="70" depart="85.00" departLane="51o_0" departPos="5.10" departSpeed="0.00" departDelay="1.70" arrival="241.00" arrivalLane="54i_0" arrivalPos="10.00" arrivalSpeed="18.71" duration="156.00" routeLength="617.75" waitingTime="102.00" waitingCount="1" stopTime="0.00" timeLoss="122.87" rerouteNo="0" devices="tripinfo_70" vType="DEFAULT_VEHTYPE" speedFactor="1.02" vaporized=""/>
    <tripinfo id="144" depart="171.00" departLane="51o_0" departPos="5.10" departSpeed="0.00" departDelay="-0.36" arrival="241.00" arrivalLane="52i_0" arrivalPos="10.00" arrivalSpeed="13.21" duration="70.00" routeLength="615.10" waitingTime="13.00" waitingCount="1" stopTime="0.00" timeLoss="26.07" rerouteNo="0" devices="tripinfo_144" vType="DEFAULT_VEHTYPE" speedFactor="0.73" vaporized=""/>
    <tripinfo id="74" depart="88.00" departLane="51o_0" departPos="5.10" departSpeed="0.00" departDelay="-0.06" arrival="242.00" arrivalLane="54i_0" arrivalPos="10.00" arrivalSpeed="17.66" duration="154.00" routeLength="617.75" waitingTime="100.00" waitingCount="1" stopTime="0.00" timeLoss="119.46" rerouteNo="0" devices="tripinfo_74" vType="DEFAULT_VEHTYPE" speedFactor="0.96" vaporized=""/>