<?xml version="1.0" encoding="UTF-8"?>

<!-- generated on Fri Nov  8 02:09:49 2019 by Eclipse SUMO Version 1.2.0
<configuration xmlns:xsi="http://www.w3.org/2001/XMLSchema-instance" xsi:noNamespaceSchemaLocation="http://sumo.dlr.de/xsd/sumoConfiguration.xsd">

    <input>
        <net-file value="simulation_files/sumocfgs/../networks/isolated_3_lanes_4_stages.net.xml"/>
        <route-files value="simulation_files/sumocfgs/../routes/isolated_3_lanes_60p.rou.xml"/>
    </input>

    <output>
        <tripinfo-output value="./output/exp21_rf_60p/veh_n__0_tripinfo_isolated.xml"/>
    </output>

    <time>
        <begin value="0"/>
        <step-length value="1"/>
    </time>

    <report>
        <verbose value="true"/>
        <no-step-log value="true"/>
    </report>

    <gui_only>
        <tracker-interval value="1"/>
    </gui_only>

</configuration>
-->

<tripinfos xmlns:xsi="http://www.w3.org/2001/XMLSchema-instance" xsi:noNamespaceSchemaLocation="http://sumo.dlr.de/xsd/tripinfo_file.xsd">
    <tripinfo id="1" depart="1.00" departLane="54o_0" departPos="5.10" departSpeed="0.00" departDelay="-0.19" arrival="40.00" arrivalLane="53i_0" arrivalPos="10.00" arrivalSpeed="17.14" duration="39.00" routeLength="615.10" waitingTime="0.00" waitingCount="0" stopTime="0.00" timeLoss="5.09" rerouteNo="0" devices="tripinfo_1" vType="DEFAULT_VEHTYPE" speedFactor="0.94" vaporized=""/>
    <tripinfo id="0" depart="0.00" departLane="52o_0" departPos="5.10" departSpeed="0.00" departDelay="0.00" arrival="47.00" arrivalLane="53i_0" arrivalPos="10.00" arrivalSpeed="20.00" duration="47.00" routeLength="617.75" waitingTime="2.00" waitingCount="1" stopTime="0.00" timeLoss="15.40" rerouteNo="0" devices="tripinfo_0" vType="DEFAULT_VEHTYPE" speedFactor="1.06" vaporized=""/>
    <tripinfo id="5" depart="5.00" departLane="52o_0" departPos="5.10" departSpeed="0.00" departDelay="-0.95" arrival="49.00" arrivalLane="51i_0" arrivalPos="10.00" arrivalSpeed="15.14" duration="44.00" routeLength="615.10" waitingTime="0.00" waitingCount="0" stopTime="0.00" timeLoss="5.00" rerouteNo="0" devices="tripinfo_5" vType="DEFAULT_VEHTYPE" speedFactor="0.83" vaporized=""/>
    <tripinfo id="9" depart="10.00" departLane="52o_0" departPos="5.10" departSpeed="0.00" departDelay="-0.71" arrival="55.00" arrivalLane="54i_0" arrivalPos="10.00" arrivalSpeed="15.76" duration="45.00" routeLength="596.93" waitingTime="0.00" waitingCount="0" stopTime="0.00" timeLoss="7.83" rerouteNo="0" devices="tripinfo_9" vType="DEFAULT_VEHTYPE" speedFactor="0.86" vaporized=""/>
    <tripinfo id="17" depart="20.00" departLane="52o_0" departPos="5.10" departSpeed="0.00" departDelay="-0.23" arrival="63.00" arrivalLane="53i_0" arrivalPos="10.00" arrivalSpeed="17.55" duration="43.00" routeLength="617.75" waitingTime="0.00" waitingCount="0" stopTime="0.00" timeLoss="7.59" rerouteNo="0" devices="tripinfo_17" vType="DEFAULT_VEHTYPE" speedFactor="0.94" vaporized=""/>
    <tripinfo id="4" depart="4.00" departLane="53o_0" departPos="5.10" departSpeed="0.00" departDelay="-0.76" arrival="67.00" arrivalLane="51i_0" arrivalPos="10.00" arrivalSpeed="19.83" duration="63.00" routeLength="617.75" waitingTime="20.00" waitingCount="1" stopTime="0.00" timeLoss="30.77" rerouteNo="0" devices="tripinfo_4" vType="DEFAULT_VEHTYPE" speedFactor="1.03" vaporized=""/>
    <tripinfo id="23" depart="27.00" departLane="53o_0" departPos="5.10" departSpeed="0.00" departDelay="-0.37" arrival="68.00" arrivalLane="54i_0" arrivalPos="10.00" arrivalSpeed="16.42" duration="41.00" routeLength="615.10" waitingTime="0.00" waitingCount="0" stopTime="0.00" timeLoss="5.22" rerouteNo="0" devices="tripinfo_23" vType="DEFAULT_VEHTYPE" speedFactor="0.89" vaporized=""/>
    <tripinfo id="13" depart="15.00" departLane="53o_0" departPos="5.10" departSpeed="0.00" departDelay="-0.47" arrival="69.00" arrivalLane="51i_0" arrivalPos="10.00" arrivalSpeed="21.61" duration="54.00" routeLength="617.75" waitingTime="10.00" waitingCount="1" stopTime="0.00" timeLoss="23.87" rerouteNo="0" devices="tripinfo_13" vType="DEFAULT_VEHTYPE" speedFactor="1.12" vaporized=""/>
    <tripinfo id="20" depart="23.00" departLane="53o_0" departPos="5.10" departSpeed="0.00" departDelay="-0.80" arrival="73.00" arrivalLane="51i_0" arrivalPos="10.00" arrivalSpeed="18.80" duration="50.00" routeLength="617.75" waitingTime="2.00" waitingCount="1" stopTime="0.00" timeLoss="16.98" rerouteNo="0" devices="tripinfo_20" vType="DEFAULT_VEHTYPE" speedFactor="1.02" vaporized=""/>
    <tripinfo id="26" depart="30.00" departLane="53o_0" departPos="5.10" departSpeed="0.00" departDelay="-0.94" arrival="74.00" arrivalLane="52i_0" arrivalPos="10.00" arrivalSpeed="16.61" duration="44.00" routeLength="596.93" waitingTime="0.00" waitingCount="0" stopTime="0.00" timeLoss="9.01" rerouteNo="0" devices="tripinfo_26" vType="DEFAULT_VEHTYPE" speedFactor="0.92" vaporized=""/>
    <tripinfo id="30" depart="35.00" departLane="53o_0" departPos="5.10" departSpeed="0.00" departDelay="-0.70" arrival="75.00" arrivalLane="52i_0" arrivalPos="10.00" arrivalSpeed="19.13" duration="40.00" routeLength="596.93" waitingTime="0.00" waitingCount="0" stopTime="0.00" timeLoss="13.13" rerouteNo="0" devices="tripinfo_30" vType="DEFAULT_VEHTYPE" speedFactor="1.18" vaporized=""/>
    <tripinfo id="31" depart="38.00" departLane="53o_0" departPos="5.10" departSpeed="0.00" departDelay="1.11" arrival="77.00" arrivalLane="52i_0" arrivalPos="10.00" arrivalSpeed="21.17" duration="39.00" routeLength="596.93" waitingTime="0.00" waitingCount="0" stopTime="0.00" timeLoss="11.19" rerouteNo="0" devices="tripinfo_31" vType="DEFAULT_VEHTYPE" speedFactor="1.15" vaporized=""/>
    <tripinfo id="32" depart="41.00" departLane="53o_0" departPos="5.10" departSpeed="0.00" departDelay="2.92" arrival="79.00" arrivalLane="54i_1" arrivalPos="10.00" arrivalSpeed="18.83" duration="38.00" routeLength="615.10" waitingTime="0.00" waitingCount="0" stopTime="0.00" timeLoss="6.04" rerouteNo="0" devices="tripinfo_32" vType="DEFAULT_VEHTYPE" speedFactor="1.01" vaporized=""/>
    <tripinfo id="37" depart="44.00" departLane="53o_0" departPos="5.10" departSpeed="0.00" departDelay="-0.03" arrival="83.00" arrivalLane="51i_0" arrivalPos="10.00" arrivalSpeed="22.46" duration="39.00" routeLength="617.75" waitingTime="0.00" waitingCount="0" stopTime="0.00" timeLoss="10.72" rerouteNo="0" devices="tripinfo_37" vType="DEFAULT_VEHTYPE" speedFactor="1.18" vaporized=""/>
    <tripinfo id="39" depart="47.00" departLane="53o_0" departPos="5.10" departSpeed="0.00" departDelay="0.59" arrival="88.00" arrivalLane="54i_0" arrivalPos="10.00" arrivalSpeed="17.00" duration="41.00" routeLength="615.10" waitingTime="0.00" waitingCount="0" stopTime="0.00" timeLoss="5.06" rerouteNo="0" devices="tripinfo_39" vType="DEFAULT_VEHTYPE" speedFactor="0.90" vaporized=""/>
    <tripinfo id="40" depart="50.00" departLane="53o_0" departPos="5.10" departSpeed="0.00" departDelay="2.40" arrival="92.00" arrivalLane="51i_0" arrivalPos="10.00" arrivalSpeed="18.99" duration="42.00" routeLength="617.75" waitingTime="0.00" waitingCount="0" stopTime="0.00" timeLoss="9.63" rerouteNo="0" devices="tripinfo_40" vType="DEFAULT_VEHTYPE" speedFactor="1.03" vaporized=""/>
    <tripinfo id="43" depart="53.00" departLane="53o_0" departPos="5.10" departSpeed="0.00" departDelay="1.83" arrival="93.00" arrivalLane="52i_0" arrivalPos="10.00" arrivalSpeed="19.63" duration="40.00" routeLength="596.93" waitingTime="0.00" waitingCount="0" stopTime="0.00" timeLoss="8.89" rerouteNo="0" devices="tripinfo_43" vType="DEFAULT_VEHTYPE" speedFactor="1.04" vaporized=""/>
    <tripinfo id="44" depart="56.00" departLane="53o_0" departPos="5.10" departSpeed="0.00" departDelay="3.64" arrival="96.00" arrivalLane="52i_0" arrivalPos="10.00" arrivalSpeed="19.06" duration="40.00" routeLength="596.93" waitingTime="0.00" waitingCount="0" stopTime="0.00" timeLoss="9.02" rerouteNo="0" devices="tripinfo_44" vType="DEFAULT_VEHTYPE" speedFactor="1.04" vaporized=""/>
    <tripinfo id="3" depart="5.00" departLane="51o_0" departPos="5.10" departSpeed="0.00" departDelay="1.43" arrival="104.00" arrivalLane="52i_1" arrivalPos="10.00" arrivalSpeed="20.58" duration="99.00" routeLength="615.10" waitingTime="55.00" waitingCount="1" stopTime="0.00" timeLoss="69.59" rerouteNo="0" devices="tripinfo_3" vType="DEFAULT_VEHTYPE" speedFactor="1.08" vaporized=""/>
    <tripinfo id="2" depart="2.00" departLane="51o_0" departPos="5.10" departSpeed="0.00" departDelay="-0.38" arrival="105.00" arrivalLane="52i_0" arrivalPos="10.00" arrivalSpeed="18.66" duration="103.00" routeLength="615.10" waitingTime="58.00" waitingCount="1" stopTime="0.00" timeLoss="71.56" rerouteNo="0" devices="tripinfo_2" vType="DEFAULT_VEHTYPE" speedFactor="1.01" vaporized=""/>
    <tripinfo id="8" depart="9.00" departLane="51o_0" departPos="5.10" departSpeed="0.00" departDelay="-0.52" arrival="106.00" arrivalLane="54i_0" arrivalPos="10.00" arrivalSpeed="17.37" duration="97.00" routeLength="617.75" waitingTime="49.00" waitingCount="1" stopTime="0.00" timeLoss="61.91" rerouteNo="0" devices="tripinfo_8" vType="DEFAULT_VEHTYPE" speedFactor="0.94" vaporized=""/>
    <tripinfo id="10" depart="12.00" departLane="51o_0" departPos="5.10" departSpeed="0.00" departDelay="0.10" arrival="106.00" arrivalLane="53i_0" arrivalPos="10.00" arrivalSpeed="20.48" duration="94.00" routeLength="596.93" waitingTime="50.00" waitingCount="1" stopTime="0.00" timeLoss="64.26" rerouteNo="0" devices="tripinfo_10" vType="DEFAULT_VEHTYPE" speedFactor="1.09" vaporized=""/>
    <tripinfo id="14" depart="18.00" departLane="51o_0" departPos="5.10" departSpeed="0.00" departDelay="1.34" arrival="107.00" arrivalLane="52i_1" arrivalPos="10.00" arrivalSpeed="18.39" duration="89.00" routeLength="615.10" waitingTime="40.00" waitingCount="1" stopTime="0.00" timeLoss="56.75" rerouteNo="0" devices="tripinfo_14" vType="DEFAULT_VEHTYPE" speedFactor="0.99" vaporized=""/>
    <tripinfo id="12" depart="15.00" departLane="51o_0" departPos="5.10" departSpeed="0.00" departDelay="0.72" arrival="108.00" arrivalLane="54i_0" arrivalPos="10.00" arrivalSpeed="19.37" duration="93.00" routeLength="617.75" waitingTime="45.00" waitingCount="1" stopTime="0.00" timeLoss="61.05" rerouteNo="0" devices="tripinfo_12" vType="DEFAULT_VEHTYPE" speedFactor="1.05" vaporized=""/>
    <tripinfo id="34" depart="40.00" departLane="51o_0" departPos="5.10" departSpeed="0.00" departDelay="-0.46" arrival="109.00" arrivalLane="52i_1" arrivalPos="10.00" arrivalSpeed="19.29" duration="69.00" routeLength="615.10" waitingTime="20.00" waitingCount="1" stopTime="0.00" timeLoss="36.45" rerouteNo="0" devices="tripinfo_34" vType="DEFAULT_VEHTYPE" speedFactor="0.99" vaporized=""/>
    <tripinfo id="15" depart="21.00" departLane="51o_0" departPos="5.10" departSpeed="0.00" departDelay="3.15" arrival="110.00" arrivalLane="53i_0" arrivalPos="10.00" arrivalSpeed="17.32" duration="89.00" routeLength="596.93" waitingTime="42.00" waitingCount="1" stopTime="0.00" timeLoss="54.98" rerouteNo="0" devices="tripinfo_15" vType="DEFAULT_VEHTYPE" speedFactor="0.93" vaporized=""/>
    <tripinfo id="25" depart="29.00" departLane="51o_0" departPos="5.10" departSpeed="0.00" departDelay="-0.75" arrival="111.00" arrivalLane="52i_2" arrivalPos="10.00" arrivalSpeed="16.15" duration="82.00" routeLength="615.10" waitingTime="33.00" waitingCount="1" stopTime="0.00" timeLoss="45.02" rerouteNo="0" devices="tripinfo_25" vType="DEFAULT_VEHTYPE" speedFactor="0.87" vaporized=""/>
    <tripinfo id="41" depart="48.00" departLane="51o_0" departPos="5.10" departSpeed="0.00" departDelay="-0.79" arrival="112.00" arrivalLane="52i_1" arrivalPos="10.00" arrivalSpeed="18.53" duration="64.00" routeLength="615.10" waitingTime="12.00" waitingCount="1" stopTime="0.00" timeLoss="30.37" rerouteNo="0" devices="tripinfo_41" vType="DEFAULT_VEHTYPE" speedFactor="0.96" vaporized=""/>
    <tripinfo id="61" depart="72.00" departLane="51o_0" departPos="5.10" departSpeed="0.00" departDelay="-0.59" arrival="112.00" arrivalLane="53i_0" arrivalPos="10.00" arrivalSpeed="21.71" duration="40.00" routeLength="596.93" waitingTime="0.00" waitingCount="0" stopTime="0.00" timeLoss="10.75" rerouteNo="0" devices="tripinfo_61" vType="DEFAULT_VEHTYPE" speedFactor="1.12" vaporized=""/>
    <tripinfo id="29" depart="34.00" departLane="51o_0" departPos="5.10" departSpeed="0.00" departDelay="-0.51" arrival="114.00" arrivalLane="54i_0" arrivalPos="10.00" arrivalSpeed="17.85" duration="80.00" routeLength="617.75" waitingTime="28.00" waitingCount="1" stopTime="0.00" timeLoss="44.09" rerouteNo="0" devices="tripinfo_29" vType="DEFAULT_VEHTYPE" speedFactor="0.93" vaporized=""/>
    <tripinfo id="42" depart="51.00" departLane="51o_0" departPos="5.10" departSpeed="0.00" departDelay="1.02" arrival="114.00" arrivalLane="52i_2" arrivalPos="10.00" arrivalSpeed="20.73" duration="63.00" routeLength="615.10" waitingTime="15.00" waitingCount="1" stopTime="0.00" timeLoss="33.15" rerouteNo="0" devices="tripinfo_42" vType="DEFAULT_VEHTYPE" speedFactor="1.09" vaporized=""/>
    <tripinfo id="59" depart="70.00" departLane="51o_0" departPos="5.10" departSpeed="0.00" departDelay="-0.21" arrival="116.00" arrivalLane="52i_1" arrivalPos="10.00" arrivalSpeed="18.03" duration="46.00" routeLength="615.10" waitingTime="0.00" waitingCount="0" stopTime="0.00" timeLoss="13.12" rerouteNo="0" devices="tripinfo_59" vType="DEFAULT_VEHTYPE" speedFactor="0.97" vaporized=""/>
    <tripinfo id="50" depart="59.00" departLane="51o_0" departPos="5.10" departSpeed="0.00" departDelay="-0.50" arrival="121.00" arrivalLane="54i_0" arrivalPos="10.00" arrivalSpeed="16.28" duration="62.00" routeLength="617.75" waitingTime="7.00" waitingCount="1" stopTime="0.00" timeLoss="23.00" rerouteNo="0" devices="tripinfo_50" vType="DEFAULT_VEHTYPE" speedFactor="0.85" vaporized=""/>
    <tripinfo id="69" depart="82.00" departLane="51o_0" departPos="5.10" departSpeed="0.00" departDelay="-0.11" arrival="122.00" arrivalLane="54i_0" arrivalPos="10.00" arrivalSpeed="18.91" duration="40.00" routeLength="617.75" waitingTime="0.00" waitingCount="0" stopTime="0.00" timeLoss="7.86" rerouteNo="0" devices="tripinfo_69" vType="DEFAULT_VEHTYPE" speedFactor="1.02" vaporized=""/>
    <tripinfo id="70" depart="85.00" departLane="51o_0" departPos="5.10" departSpeed="0.00" departDelay="1.70" arrival="125.00" arrivalLane="54i_0" arrivalPos="10.00" arrivalSpeed="19.15" duration="40.00" routeLength="617.75" waitingTime="0.00" waitingCount="0" stopTime="0.00" timeLoss="7.42" rerouteNo="0" devices="tripinfo_70" vType="DEFAULT_VEHTYPE" speedFactor="1.02" vaporized=""/>
    <tripinfo id="74" depart="88.00" departLane="51o_0" departPos="5.10" departSpeed="0.00" departDelay="-0.06" arrival="130.00" arrivalLane="54i_0" arrivalPos="10.00" arrivalSpeed="17.83" duration="42.00" routeLength="617.75" waitingTime="0.00" waitingCount="0" stopTime="0.00" timeLoss="7.19" rerouteNo="0" devices="tripinfo_74" vType="DEFAULT_VEHTYPE" speedFactor="0.96" vaporized=""/>
    <tripinfo id="6" depart="7.00" departLane="54o_0" departPos="5.10" departSpeed="0.00" departDelay="-0.14" arrival="134.00" arrivalLane="53i_0" arrivalPos="10.00" arrivalSpeed="19.38" duration="127.00" routeLength="615.10" waitingTime="82.00" waitingCount="1" stopTime="0.00" timeLoss="96.64" rerouteNo="0" devices="tripinfo_6" vType="DEFAULT_VEHTYPE" speedFactor="1.05" vaporized=""/>
    <tripinfo id="11" depart="15.00" departLane="4i_0" departPos="5.10" departSpeed="0.00" departDelay="1.91" arrival="134.00" arrivalLane="52i_0" arrivalPos="10.00" arrivalSpeed="18.78" duration="119.00" routeLength="607.65" waitingTime="74.00" waitingCount="1" stopTime="0.00" timeLoss="87.32" rerouteNo="0" devices="tripinfo_11" vType="DEFAULT_VEHTYPE" speedFactor="1.03" vaporized=""/>
    <tripinfo id="19" depart="22.00" departLane="54o_0" departPos="5.10" departSpeed="0.00" departDelay="-0.61" arrival="134.00" arrivalLane="53i_2" arrivalPos="10.00" arrivalSpeed="21.77" duration="112.00" routeLength="615.10" waitingTime="70.00" waitingCount="1" stopTime="0.00" timeLoss="84.47" rerouteNo="0" devices="tripinfo_19" vType="DEFAULT_VEHTYPE" speedFactor="1.16" vaporized=""/>
    <tripinfo id="16" depart="19.00" departLane="54o_0" departPos="5.10" departSpeed="0.00" departDelay="-0.04" arrival="136.00" arrivalLane="53i_0" arrivalPos="10.00" arrivalSpeed="15.89" duration="117.00" routeLength="615.10" waitingTime="67.00" waitingCount="1" stopTime="0.00" timeLoss="80.33" rerouteNo="0" devices="tripinfo_16" vType="DEFAULT_VEHTYPE" speedFactor="0.88" vaporized=""/>
    <tripinfo id="21" depart="25.00" departLane="54o_0" departPos="5.10" departSpeed="0.00" departDelay="0.01" arrival="137.00" arrivalLane="53i_1" arrivalPos="10.00" arrivalSpeed="19.18" duration="112.00" routeLength="615.10" waitingTime="62.00" waitingCount="1" stopTime="0.00" timeLoss="79.92" rerouteNo="0" devices="tripinfo_21" vType="DEFAULT_VEHTYPE" speedFactor="1.01" vaporized=""/>
    <tripinfo id="22" depart="28.00" departLane="54o_0" departPos="5.10" departSpeed="0.00" departDelay="1.82" arrival="138.00" arrivalLane="53i_2" arrivalPos="10.00" arrivalSpeed="18.72" duration="110.00" routeLength="615.10" waitingTime="64.00" waitingCount="1" stopTime="0.00" timeLoss="77.09" rerouteNo="0" devices="tripinfo_22" vType="DEFAULT_VEHTYPE" speedFactor="0.98" vaporized=""/>
    <tripinfo id="33" depart="39.00" departLane="54o_0" departPos="5.10" departSpeed="0.00" departDelay="-0.27" arrival="138.00" arrivalLane="52i_0" arrivalPos="10.00" arrivalSpeed="21.77" duration="99.00" routeLength="617.75" waitingTime="55.00" waitingCount="1" stopTime="0.00" timeLoss="70.69" rerouteNo="0" devices="tripinfo_33" vType="DEFAULT_VEHTYPE" speedFactor="1.17" vaporized=""/>
    <tripinfo id="35" depart="42.00" departLane="54o_0" departPos="5.10" departSpeed="0.00" departDelay="0.35" arrival="138.00" arrivalLane="53i_1" arrivalPos="10.00" arrivalSpeed="18.57" duration="96.00" routeLength="615.10" waitingTime="47.00" waitingCount="1" stopTime="0.00" timeLoss="64.97" rerouteNo="0" devices="tripinfo_35" vType="DEFAULT_VEHTYPE" speedFactor="1.02" vaporized=""/>
    <tripinfo id="7" depart="10.00" departLane="54o_0" departPos="5.10" departSpeed="0.00" departDelay="1.67" arrival="139.00" arrivalLane="51i_0" arrivalPos="10.00" arrivalSpeed="16.88" duration="129.00" routeLength="596.93" waitingTime="78.00" waitingCount="1" stopTime="0.00" timeLoss="92.91" rerouteNo="0" devices="tripinfo_7" vType="DEFAULT_VEHTYPE" speedFactor="0.89" vaporized=""/>
    <tripinfo id="75" depart="89.00" departLane="54o_0" departPos="5.10" departSpeed="0.00" departDelay="-0.25" arrival="140.00" arrivalLane="53i_1" arrivalPos="10.00" arrivalSpeed="17.86" duration="51.00" routeLength="615.10" waitingTime="0.00" waitingCount="0" stopTime="0.00" timeLoss="18.55" rerouteNo="0" devices="tripinfo_75" vType="DEFAULT_VEHTYPE" speedFactor="0.98" vaporized=""/>
    <tripinfo id="24" depart="31.00" departLane="54o_0" departPos="5.10" departSpeed="0.00" departDelay="2.44" arrival="142.00" arrivalLane="51i_0" arrivalPos="10.00" arrivalSpeed="15.16" duration="111.00" routeLength="596.93" waitingTime="60.00" waitingCount="1" stopTime="0.00" timeLoss="72.25" rerouteNo="0" devices="tripinfo_24" vType="DEFAULT_VEHTYPE" speedFactor="0.83" vaporized=""/>
    <tripinfo id="36" depart="45.00" departLane="54o_0" departPos="5.10" departSpeed="0.00" departDelay="2.16" arrival="144.00" arrivalLane="52i_0" arrivalPos="10.00" arrivalSpeed="18.44" duration="99.00" routeLength="617.75" waitingTime="49.00" waitingCount="1" stopTime="0.00" timeLoss="65.06" rerouteNo="0" devices="tripinfo_36" vType="DEFAULT_VEHTYPE" speedFactor="0.97" vaporized=""/>
    <tripinfo id="49" depart="60.00" departLane="54o_0" departPos="5.10" departSpeed="0.00" departDelay="1.69" arrival="144.00" arrivalLane="53i_0" arrivalPos="10.00" arrivalSpeed="15.37" duration="84.00" routeLength="615.10" waitingTime="30.00" waitingCount="1" stopTime="0.00" timeLoss="46.70" rerouteNo="0" devices="tripinfo_49" vType="DEFAULT_VEHTYPE" speedFactor="0.85" vaporized=""/>
    <tripinfo id="38" depart="48.00" departLane="54o_0" departPos="5.10" departSpeed="0.00" departDelay="2.78" arrival="146.00" arrivalLane="52i_0" arrivalPos="10.00" arrivalSpeed="21.38" duration="98.00" routeLength="617.75" waitingTime="48.00" waitingCount="1" stopTime="0.00" timeLoss="67.44" rerouteNo="0" devices="tripinfo_38" vType="DEFAULT_VEHTYPE" speedFactor="1.10" vaporized=""/>
    <tripinfo id="56" depart="66.00" departLane="54o_0" departPos="5.10" departSpeed="0.00" departDelay="-0.64" arrival="146.00" arrivalLane="51i_0" arrivalPos="10.00" arrivalSpeed="17.35" duration="80.00" routeLength="596.93" waitingTime="28.00" waitingCount="1" stopTime="0.00" timeLoss="44.74" rerouteNo="0" devices="tripinfo_56" vType="DEFAULT_VEHTYPE" speedFactor="0.90" vaporized=""/>
    <tripinfo id="45" depart="53.00" departLane="54o_0" departPos="5.10" departSpeed="0.00" departDelay="-0.55" arrival="148.00" arrivalLane="52i_0" arrivalPos="10.00" arrivalSpeed="20.91" duration="95.00" routeLength="617.75" waitingTime="45.00" waitingCount="1" stopTime="0.00" timeLoss="63.93" rerouteNo="0" devices="tripinfo_45" vType="DEFAULT_VEHTYPE" speedFactor="1.09" vaporized=""/>
    <tripinfo id="72" depart="85.00" departLane="54o_0" departPos="5.10" departSpeed="0.00" departDelay="-0.68" arrival="148.00" arrivalLane="51i_0" arrivalPos="10.00" arrivalSpeed="17.10" duration="63.00" routeLength="596.93" waitingTime="12.00" waitingCount="1" stopTime="0.00" timeLoss="28.51" rerouteNo="0" devices="tripinfo_72" vType="DEFAULT_VEHTYPE" speedFactor="0.94" vaporized=""/>
    <tripinfo id="83" depart="98.00" departLane="54o_0" departPos="5.10" departSpeed="0.00" departDelay="-0.77" arrival="150.00" arrivalLane="51i_0" arrivalPos="10.00" arrivalSpeed="18.55" duration="52.00" routeLength="596.93" waitingTime="0.00" waitingCount="0" stopTime="0.00" timeLoss="18.70" rerouteNo="0" devices="tripinfo_83" vType="DEFAULT_VEHTYPE" speedFactor="0.97" vaporized=""/>
    <tripinfo id="84" depart="101.00" departLane="54o_0" departPos="5.10" departSpeed="0.00" departDelay="1.04" arrival="152.00" arrivalLane="51i_0" arrivalPos="10.00" arrivalSpeed="21.11" duration="51.00" routeLength="596.93" waitingTime="0.00" waitingCount="0" stopTime="0.00" timeLoss="22.91" rerouteNo="0" devices="tripinfo_84" vType="DEFAULT_VEHTYPE" speedFactor="1.15" vaporized=""/>
    <tripinfo id="48" depart="57.00" departLane="54o_0" departPos="5.10" departSpeed="0.00" departDelay="-0.12" arrival="153.00" arrivalLane="52i_0" arrivalPos="10.00" arrivalSpeed="16.41" duration="96.00" routeLength="617.75" waitingTime="41.00" waitingCount="1" stopTime="0.00" timeLoss="57.84" rerouteNo="0" devices="tripinfo_48" vType="DEFAULT_VEHTYPE" speedFactor="0.88" vaporized=""/>
    <tripinfo id="87" depart="107.00" departLane="54o_0" departPos="5.10" departSpeed="0.00" departDelay="3.47" arrival="154.00" arrivalLane="52i_0" arrivalPos="10.00" arrivalSpeed="19.46" duration="47.00" routeLength="617.75" waitingTime="0.00" waitingCount="0" stopTime="0.00" timeLoss="15.44" rerouteNo="0" devices="tripinfo_87" vType="DEFAULT_VEHTYPE" speedFactor="1.04" vaporized=""/>
    <tripinfo id="91" depart="112.00" departLane="54o_0" departPos="5.10" departSpeed="0.00" departDelay="3.71" arrival="154.00" arrivalLane="53i_1" arrivalPos="10.00" arrivalSpeed="16.14" duration="42.00" routeLength="615.10" waitingTime="0.00" waitingCount="0" stopTime="0.00" timeLoss="5.88" rerouteNo="0" devices="tripinfo_91" vType="DEFAULT_VEHTYPE" speedFactor="0.89" vaporized=""/>
    <tripinfo id="86" depart="104.00" departLane="54o_0" departPos="5.10" departSpeed="0.00" departDelay="1.66" arrival="155.00" arrivalLane="51i_0" arrivalPos="10.00" arrivalSpeed="18.84" duration="51.00" routeLength="596.93" waitingTime="0.00" waitingCount="0" stopTime="0.00" timeLoss="18.28" rerouteNo="0" devices="tripinfo_86" vType="DEFAULT_VEHTYPE" speedFactor="1.00" vaporized=""/>
    <tripinfo id="89" depart="109.00" departLane="54o_0" departPos="5.10" departSpeed="0.00" departDelay="3.09" arrival="156.00" arrivalLane="52i_0" arrivalPos="10.00" arrivalSpeed="19.20" duration="47.00" routeLength="617.75" waitingTime="0.00" waitingCount="0" stopTime="0.00" timeLoss="14.89" rerouteNo="0" devices="tripinfo_89" vType="DEFAULT_VEHTYPE" speedFactor="1.02" vaporized=""/>
    <tripinfo id="100" depart="119.00" departLane="54o_0" departPos="5.10" departSpeed="0.00" departDelay="0.00" arrival="156.00" arrivalLane="53i_2" arrivalPos="10.00" arrivalSpeed="19.44" duration="37.00" routeLength="615.10" waitingTime="0.00" waitingCount="0" stopTime="0.00" timeLoss="7.09" rerouteNo="0" devices="tripinfo_100" vType="DEFAULT_VEHTYPE" speedFactor="1.07" vaporized=""/>
    <tripinfo id="101" depart="122.00" departLane="54o_0" departPos="5.10" departSpeed="0.00" departDelay="1.81" arrival="162.00" arrivalLane="53i_0" arrivalPos="10.00" arrivalSpeed="17.64" duration="40.00" routeLength="615.10" waitingTime="0.00" waitingCount="0" stopTime="0.00" timeLoss="6.34" rerouteNo="0" devices="tripinfo_101" vType="DEFAULT_VEHTYPE" speedFactor="0.96" vaporized=""/>
    <tripinfo id="102" depart="125.00" departLane="54o_0" departPos="5.10" departSpeed="0.00" departDelay="3.62" arrival="164.00" arrivalLane="53i_0" arrivalPos="10.00" arrivalSpeed="18.40" duration="39.00" routeLength="615.10" waitingTime="0.00" waitingCount="0" stopTime="0.00" timeLoss="5.78" rerouteNo="0" devices="tripinfo_102" vType="DEFAULT_VEHTYPE" speedFactor="0.97" vaporized=""/>
    <tripinfo id="105" depart="128.00" departLane="54o_0" departPos="5.10" departSpeed="0.00" departDelay="3.05" arrival="167.00" arrivalLane="52i_0" arrivalPos="10.00" arrivalSpeed="20.33" duration="39.00" routeLength="617.75" waitingTime="0.00" waitingCount="0" stopTime="0.00" timeLoss="7.88" rerouteNo="0" devices="tripinfo_105" vType="DEFAULT_VEHTYPE" speedFactor="1.07" vaporized=""/>
    <tripinfo id="110" depart="131.00" departLane="54o_0" departPos="5.10" departSpeed="0.00" departDelay="0.10" arrival="175.00" arrivalLane="52i_0" arrivalPos="10.00" arrivalSpeed="16.80" duration="44.00" routeLength="617.75" waitingTime="0.00" waitingCount="0" stopTime="0.00" timeLoss="8.26" rerouteNo="0" devices="tripinfo_110" vType="DEFAULT_VEHTYPE" speedFactor="0.93" vaporized=""/>
    <tripinfo id="111" depart="134.00" departLane="54o_0" departPos="5.10" departSpeed="0.00" departDelay="1.91" arrival="179.00" arrivalLane="52i_0" arrivalPos="10.00" arrivalSpeed="15.79" duration="45.00" routeLength="617.75" waitingTime="0.00" waitingCount="0" stopTime="0.00" timeLoss="6.77" rerouteNo="0" devices="tripinfo_111" vType="DEFAULT_VEHTYPE" speedFactor="0.87" vaporized=""/>
    <tripinfo id="119" depart="143.00" departLane="54o_0" departPos="5.10" departSpeed="0.00" departDelay="1.39" arrival="179.00" arrivalLane="53i_1" arrivalPos="10.00" arrivalSpeed="19.75" duration="36.00" routeLength="615.10" waitingTime="0.00" waitingCount="0" stopTime="0.00" timeLoss="5.63" rerouteNo="0" devices="tripinfo_119" vType="DEFAULT_VEHTYPE" speedFactor="1.07" vaporized=""/>
    <tripinfo id="118" depart="140.00" departLane="54o_0" departPos="5.10" departSpeed="0.00" departDelay="-0.42" arrival="181.00" arrivalLane="51i_0" arrivalPos="10.00" arrivalSpeed="18.98" duration="41.00" routeLength="596.93" waitingTime="0.00" waitingCount="0" stopTime="0.00" timeLoss="9.38" rerouteNo="0" devices="tripinfo_118" vType="DEFAULT_VEHTYPE" speedFactor="0.99" vaporized=""/>
    <tripinfo id="120" depart="146.00" departLane="54o_0" departPos="5.10" departSpeed="0.00" departDelay="3.20" arrival="185.00" arrivalLane="53i_0" arrivalPos="10.00" arrivalSpeed="17.87" duration="39.00" routeLength="615.10" waitingTime="0.00" waitingCount="0" stopTime="0.00" timeLoss="4.96" rerouteNo="0" devices="tripinfo_120" vType="DEFAULT_VEHTYPE" speedFactor="0.94" vaporized=""/>
    <tripinfo id="123" depart="149.00" departLane="54o_0" departPos="5.10" departSpeed="0.00" departDelay="2.63" arrival="190.00" arrivalLane="52i_0" arrivalPos="10.00" arrivalSpeed="18.91" duration="41.00" routeLength="617.75" waitingTime="0.00" waitingCount="0" stopTime="0.00" timeLoss="8.92" rerouteNo="0" devices="tripinfo_123" vType="DEFAULT_VEHTYPE" speedFactor="1.02" vaporized=""/>
    <tripinfo id="128" depart="152.00" departLane="54o_0" departPos="5.10" departSpeed="0.00" departDelay="-0.32" arrival="191.00" arrivalLane="51i_0" arrivalPos="10.00" arrivalSpeed="21.01" duration="39.00" routeLength="596.93" waitingTime="0.00" waitingCount="0" stopTime="0.00" timeLoss="10.06" rerouteNo="0" devices="tripinfo_128" vType="DEFAULT_VEHTYPE" speedFactor="1.12" vaporized=""/>
    <tripinfo id="131" depart="155.00" departLane="54o_0" departPos="5.10" departSpeed="0.00" departDelay="-0.89" arrival="194.00" arrivalLane="52i_0" arrivalPos="10.00" arrivalSpeed="19.60" duration="39.00" routeLength="617.75" waitingTime="0.00" waitingCount="0" stopTime="0.00" timeLoss="8.16" rerouteNo="0" devices="tripinfo_131" vType="DEFAULT_VEHTYPE" speedFactor="1.07" vaporized=""/>
    <tripinfo id="132" depart="158.00" departLane="54o_0" departPos="5.10" departSpeed="0.00" departDelay="0.92" arrival="200.00" arrivalLane="51i_0" arrivalPos="10.00" arrivalSpeed="17.81" duration="42.00" routeLength="596.93" waitingTime="0.00" waitingCount="0" stopTime="0.00" timeLoss="9.07" rerouteNo="0" devices="tripinfo_132" vType="DEFAULT_VEHTYPE" speedFactor="0.96" vaporized=""/>
    <tripinfo id="134" depart="161.00" departLane="54o_0" departPos="5.10" departSpeed="0.00" departDelay="1.54" arrival="202.00" arrivalLane="51i_0" arrivalPos="10.00" arrivalSpeed="21.18" duration="41.00" routeLength="596.93" waitingTime="0.00" waitingCount="0" stopTime="0.00" timeLoss="13.92" rerouteNo="0" devices="tripinfo_134" vType="DEFAULT_VEHTYPE" speedFactor="1.23" vaporized=""/>