<?xml version="1.0" encoding="UTF-8"?>

<!-- generated on Sat Nov  9 12:37:21 2019 by Eclipse SUMO Version 1.2.0
<configuration xmlns:xsi="http://www.w3.org/2001/XMLSchema-instance" xsi:noNamespaceSchemaLocation="http://sumo.dlr.de/xsd/sumoConfiguration.xsd">

    <input>
        <net-file value="simulation_files/sumocfgs/../networks/isolated_3_lanes_4_stages.net.xml"/>
        <route-files value="simulation_files/sumocfgs/../routes/isolated_3_lanes_varying_exp22.rou.xml"/>
    </input>

    <output>
        <tripinfo-output value="./output/exp22/adapt_veh_n_thp_0.1_8_tripinfo_isolated.xml"/>
    </output>

    <time>
        <begin value="0"/>
        <step-length value="1"/>
    </time>

    <report>
        <verbose value="true"/>
        <no-step-log value="true"/>
    </report>

    <gui_only>
        <tracker-interval value="1"/>
    </gui_only>

</configuration>
-->

<tripinfos xmlns:xsi="http://www.w3.org/2001/XMLSchema-instance" xsi:noNamespaceSchemaLocation="http://sumo.dlr.de/xsd/tripinfo_file.xsd">
    <tripinfo id="1_0" depart="0.00" departLane="54o_0" departPos="5.10" departSpeed="0.00" departDelay="0.00" arrival="39.00" arrivalLane="51i_0" arrivalPos="10.00" arrivalSpeed="19.76" duration="39.00" routeLength="596.93" waitingTime="0.00" waitingCount="0" stopTime="0.00" timeLoss="9.30" rerouteNo="0" devices="tripinfo_1_0" vType="DEFAULT_VEHTYPE" speedFactor="1.06" vaporized=""/>
    <tripinfo id="1_2" depart="14.00" departLane="52o_0" departPos="5.10" departSpeed="0.00" departDelay="-0.28" arrival="55.00" arrivalLane="53i_0" arrivalPos="10.00" arrivalSpeed="18.41" duration="41.00" routeLength="617.75" waitingTime="0.00" waitingCount="0" stopTime="0.00" timeLoss="8.15" rerouteNo="0" devices="tripinfo_1_2" vType="DEFAULT_VEHTYPE" speedFactor="1.01" vaporized=""/>
    <tripinfo id="1_8" depart="57.00" departLane="52o_0" departPos="5.10" departSpeed="0.00" departDelay="-0.12" arrival="97.00" arrivalLane="51i_0" arrivalPos="10.00" arrivalSpeed="17.21" duration="40.00" routeLength="615.10" waitingTime="0.00" waitingCount="0" stopTime="0.00" timeLoss="5.50" rerouteNo="0" devices="tripinfo_1_8" vType="DEFAULT_VEHTYPE" speedFactor="0.94" vaporized=""/>
    <tripinfo id="1_3" depart="21.00" departLane="53o_0" departPos="5.10" departSpeed="0.00" departDelay="-0.42" arrival="108.00" arrivalLane="52i_0" arrivalPos="10.00" arrivalSpeed="19.82" duration="87.00" routeLength="596.93" waitingTime="44.00" waitingCount="1" stopTime="0.00" timeLoss="57.65" rerouteNo="0" devices="tripinfo_1_3" vType="DEFAULT_VEHTYPE" speedFactor="1.08" vaporized=""/>
    <tripinfo id="1_12" depart="85.00" departLane="53o_0" departPos="5.10" departSpeed="0.00" departDelay="-0.68" arrival="121.00" arrivalLane="54i_0" arrivalPos="10.00" arrivalSpeed="19.33" duration="36.00" routeLength="615.10" waitingTime="0.00" waitingCount="0" stopTime="0.00" timeLoss="5.46" rerouteNo="0" devices="tripinfo_1_12" vType="DEFAULT_VEHTYPE" speedFactor="1.05" vaporized=""/>
    <tripinfo id="1_6" depart="42.00" departLane="51o_0" departPos="5.10" departSpeed="0.00" departDelay="-0.84" arrival="159.00" arrivalLane="54i_0" arrivalPos="10.00" arrivalSpeed="19.92" duration="117.00" routeLength="617.75" waitingTime="71.00" waitingCount="1" stopTime="0.00" timeLoss="85.59" rerouteNo="0" devices="tripinfo_1_6" vType="DEFAULT_VEHTYPE" speedFactor="1.05" vaporized=""/>
    <tripinfo id="1_7" depart="49.00" departLane="51o_0" departPos="5.10" departSpeed="0.00" departDelay="-0.98" arrival="161.00" arrivalLane="52i_0" arrivalPos="10.00" arrivalSpeed="16.12" duration="112.00" routeLength="615.10" waitingTime="63.00" waitingCount="1" stopTime="0.00" timeLoss="75.82" rerouteNo="0" devices="tripinfo_1_7" vType="DEFAULT_VEHTYPE" speedFactor="0.89" vaporized=""/>
    <tripinfo id="1_10" depart="71.00" departLane="51o_0" departPos="5.10" departSpeed="0.00" departDelay="-0.40" arrival="161.00" arrivalLane="54i_0" arrivalPos="10.00" arrivalSpeed="20.91" duration="90.00" routeLength="617.75" waitingTime="46.00" waitingCount="1" stopTime="0.00" timeLoss="59.85" rerouteNo="0" devices="tripinfo_1_10" vType="DEFAULT_VEHTYPE" speedFactor="1.09" vaporized=""/>
    <tripinfo id="1_18" depart="128.00" departLane="51o_0" departPos="5.10" departSpeed="0.00" departDelay="-0.52" arrival="168.00" arrivalLane="52i_0" arrivalPos="10.00" arrivalSpeed="17.65" duration="40.00" routeLength="615.10" waitingTime="0.00" waitingCount="0" stopTime="0.00" timeLoss="5.50" rerouteNo="0" devices="tripinfo_1_18" vType="DEFAULT_VEHTYPE" speedFactor="0.94" vaporized=""/>
    <tripinfo id="1_24" depart="171.00" departLane="51o_0" departPos="5.10" departSpeed="0.00" departDelay="-0.36" arrival="218.00" arrivalLane="53i_0" arrivalPos="10.00" arrivalSpeed="15.44" duration="47.00" routeLength="596.93" waitingTime="0.00" waitingCount="0" stopTime="0.00" timeLoss="8.17" rerouteNo="0" devices="tripinfo_1_24" vType="DEFAULT_VEHTYPE" speedFactor="0.83" vaporized=""/>
    <tripinfo id="1_27" depart="192.00" departLane="51o_0" departPos="5.10" departSpeed="0.00" departDelay="-0.78" arrival="231.00" arrivalLane="52i_0" arrivalPos="10.00" arrivalSpeed="17.40" duration="39.00" routeLength="615.10" waitingTime="0.00" waitingCount="0" stopTime="0.00" timeLoss="5.61" rerouteNo="0" devices="tripinfo_1_27" vType="DEFAULT_VEHTYPE" speedFactor="0.95" vaporized=""/>
    <tripinfo id="1_1" depart="7.00" departLane="54o_0" departPos="5.10" departSpeed="0.00" departDelay="-0.14" arrival="249.00" arrivalLane="53i_0" arrivalPos="10.00" arrivalSpeed="17.95" duration="242.00" routeLength="615.10" waitingTime="194.00" waitingCount="1" stopTime="0.00" timeLoss="208.05" rerouteNo="0" devices="tripinfo_1_1" vType="DEFAULT_VEHTYPE" speedFactor="0.94" vaporized=""/>
    <tripinfo id="1_4" depart="28.00" departLane="54o_0" departPos="5.10" departSpeed="0.00" departDelay="-0.56" arrival="249.00" arrivalLane="51i_0" arrivalPos="10.00" arrivalSpeed="19.47" duration="221.00" routeLength="596.93" waitingTime="177.00" waitingCount="1" stopTime="0.00" timeLoss="190.04" rerouteNo="0" devices="tripinfo_1_4" vType="DEFAULT_VEHTYPE" speedFactor="1.03" vaporized=""/>
    <tripinfo id="1_9" depart="64.00" departLane="54o_0" departPos="5.10" departSpeed="0.00" departDelay="-0.26" arrival="250.00" arrivalLane="53i_1" arrivalPos="10.00" arrivalSpeed="16.29" duration="186.00" routeLength="615.10" waitingTime="137.00" waitingCount="1" stopTime="0.00" timeLoss="148.85" rerouteNo="0" devices="tripinfo_1_9" vType="DEFAULT_VEHTYPE" speedFactor="0.86" vaporized=""/>
    <tripinfo id="1_5" depart="35.00" departLane="54o_0" departPos="5.10" departSpeed="0.00" departDelay="-0.70" arrival="252.00" arrivalLane="52i_0" arrivalPos="10.00" arrivalSpeed="15.38" duration="217.00" routeLength="617.75" waitingTime="166.00" waitingCount="1" stopTime="0.00" timeLoss="177.08" rerouteNo="0" devices="tripinfo_1_5" vType="DEFAULT_VEHTYPE" speedFactor="0.83" vaporized=""/>
    <tripinfo id="1_16" depart="114.00" departLane="54o_0" departPos="5.10" departSpeed="0.00" departDelay="-0.24" arrival="253.00" arrivalLane="52i_1" arrivalPos="10.00" arrivalSpeed="17.03" duration="139.00" routeLength="617.75" waitingTime="89.00" waitingCount="1" stopTime="0.00" timeLoss="101.14" rerouteNo="0" devices="tripinfo_1_16" vType="DEFAULT_VEHTYPE" speedFactor="0.88" vaporized=""/>
    <tripinfo id="1_17" depart="121.00" departLane="54o_0" departPos="5.10" departSpeed="0.00" departDelay="-0.38" arrival="254.00" arrivalLane="52i_0" arrivalPos="10.00" arrivalSpeed="17.89" duration="133.00" routeLength="617.75" waitingTime="84.00" waitingCount="1" stopTime="0.00" timeLoss="97.95" rerouteNo="0" devices="tripinfo_1_17" vType="DEFAULT_VEHTYPE" speedFactor="0.94" vaporized=""/>
    <tripinfo id="1_31" depart="221.00" departLane="54o_0" departPos="5.10" departSpeed="0.00" departDelay="-0.34" arrival="255.00" arrivalLane="53i_0" arrivalPos="10.00" arrivalSpeed="21.18" duration="34.00" routeLength="615.10" waitingTime="0.00" waitingCount="0" stopTime="0.00" timeLoss="6.21" rerouteNo="0" devices="tripinfo_1_31" vType="DEFAULT_VEHTYPE" speedFactor="1.15" vaporized=""/>
    <tripinfo id="1_23" depart="164.00" departLane="54o_0" departPos="5.10" departSpeed="0.00" departDelay="-0.22" arrival="258.00" arrivalLane="52i_0" arrivalPos="10.00" arrivalSpeed="16.29" duration="94.00" routeLength="617.75" waitingTime="43.00" waitingCount="1" stopTime="0.00" timeLoss="56.49" rerouteNo="0" devices="tripinfo_1_23" vType="DEFAULT_VEHTYPE" speedFactor="0.89" vaporized=""/>
    <tripinfo id="1_30" depart="214.00" departLane="54o_0" departPos="5.10" departSpeed="0.00" departDelay="-0.20" arrival="259.00" arrivalLane="52i_0" arrivalPos="10.00" arrivalSpeed="19.11" duration="45.00" routeLength="617.75" waitingTime="0.00" waitingCount="0" stopTime="0.00" timeLoss="17.00" rerouteNo="0" devices="tripinfo_1_30" vType="DEFAULT_VEHTYPE" speedFactor="1.18" vaporized=""/>
    <tripinfo id="1_33" depart="235.00" departLane="54o_0" departPos="5.10" departSpeed="0.00" departDelay="-0.62" arrival="268.00" arrivalLane="53i_0" arrivalPos="10.00" arrivalSpeed="22.55" duration="33.00" routeLength="615.10" waitingTime="0.00" waitingCount="0" stopTime="0.00" timeLoss="5.92" rerouteNo="0" devices="tripinfo_1_33" vType="DEFAULT_VEHTYPE" speedFactor="1.17" vaporized=""/>
    <tripinfo id="1_11" depart="78.00" departLane="52o_0" departPos="5.10" departSpeed="0.00" departDelay="-0.54" arrival="291.00" arrivalLane="54i_0" arrivalPos="10.00" arrivalSpeed="18.93" duration="213.00" routeLength="596.93" waitingTime="168.00" waitingCount="1" stopTime="0.00" timeLoss="182.04" rerouteNo="0" devices="tripinfo_1_11" vType="DEFAULT_VEHTYPE" speedFactor="1.03" vaporized=""/>
    <tripinfo id="1_13" depart="92.00" departLane="52o_0" departPos="5.10" departSpeed="0.00" departDelay="-0.82" arrival="292.00" arrivalLane="51i_1" arrivalPos="10.00" arrivalSpeed="18.37" duration="200.00" routeLength="615.10" waitingTime="157.00" waitingCount="1" stopTime="0.00" timeLoss="171.30" rerouteNo="0" devices="tripinfo_1_13" vType="DEFAULT_VEHTYPE" speedFactor="1.12" vaporized=""/>
    <tripinfo id="1_14" depart="99.00" departLane="52o_0" departPos="5.10" departSpeed="0.00" departDelay="-0.96" arrival="292.00" arrivalLane="51i_2" arrivalPos="10.00" arrivalSpeed="18.55" duration="193.00" routeLength="615.10" waitingTime="149.00" waitingCount="1" stopTime="0.00" timeLoss="160.43" rerouteNo="0" devices="tripinfo_1_14" vType="DEFAULT_VEHTYPE" speedFactor="0.99" vaporized=""/>
    <tripinfo id="1_21" depart="149.00" departLane="52o_0" departPos="5.10" departSpeed="0.00" departDelay="-0.94" arrival="293.00" arrivalLane="54i_0" arrivalPos="10.00" arrivalSpeed="19.08" duration="144.00" routeLength="596.93" waitingTime="99.00" waitingCount="1" stopTime="0.00" timeLoss="112.56" rerouteNo="0" devices="tripinfo_1_21" vType="DEFAULT_VEHTYPE" speedFactor="1.01" vaporized=""/>
    <tripinfo id="1_15" depart="107.00" departLane="52o_0" departPos="5.10" departSpeed="0.00" departDelay="-0.10" arrival="295.00" arrivalLane="51i_2" arrivalPos="10.00" arrivalSpeed="17.36" duration="188.00" routeLength="615.10" waitingTime="141.00" waitingCount="1" stopTime="0.00" timeLoss="153.14" rerouteNo="0" devices="tripinfo_1_15" vType="DEFAULT_VEHTYPE" speedFactor="0.93" vaporized=""/>
    <tripinfo id="1_22" depart="157.00" departLane="52o_0" departPos="5.10" departSpeed="0.00" departDelay="-0.08" arrival="297.00" arrivalLane="54i_0" arrivalPos="10.00" arrivalSpeed="18.18" duration="140.00" routeLength="596.93" waitingTime="92.00" waitingCount="1" stopTime="0.00" timeLoss="106.97" rerouteNo="0" devices="tripinfo_1_22" vType="DEFAULT_VEHTYPE" speedFactor="0.98" vaporized=""/>
    <tripinfo id="1_38" depart="271.00" departLane="52o_0" departPos="5.10" departSpeed="0.00" departDelay="-0.32" arrival="310.00" arrivalLane="53i_0" arrivalPos="10.00" arrivalSpeed="20.83" duration="39.00" routeLength="617.75" waitingTime="0.00" waitingCount="0" stopTime="0.00" timeLoss="8.77" rerouteNo="0" devices="tripinfo_1_38" vType="DEFAULT_VEHTYPE" speedFactor="1.10" vaporized=""/>
    <tripinfo id="1_39" depart="278.00" departLane="52o_0" departPos="5.10" departSpeed="0.00" departDelay="-0.46" arrival="322.00" arrivalLane="54i_0" arrivalPos="10.00" arrivalSpeed="17.00" duration="44.00" routeLength="596.93" waitingTime="0.00" waitingCount="0" stopTime="0.00" timeLoss="8.62" rerouteNo="0" devices="tripinfo_1_39" vType="DEFAULT_VEHTYPE" speedFactor="0.90" vaporized=""/>
    <tripinfo id="1_19" depart="135.00" departLane="53o_0" departPos="5.10" departSpeed="0.00" departDelay="-0.66" arrival="394.00" arrivalLane="52i_0" arrivalPos="10.00" arrivalSpeed="21.44" duration="259.00" routeLength="596.93" waitingTime="216.00" waitingCount="1" stopTime="0.00" timeLoss="230.99" rerouteNo="0" devices="tripinfo_1_19" vType="DEFAULT_VEHTYPE" speedFactor="1.16" vaporized=""/>
    <tripinfo id="1_20" depart="142.00" departLane="53o_0" departPos="5.10" departSpeed="0.00" departDelay="-0.80" arrival="397.00" arrivalLane="52i_0" arrivalPos="10.00" arrivalSpeed="19.27" duration="255.00" routeLength="596.93" waitingTime="211.00" waitingCount="1" stopTime="0.00" timeLoss="223.30" rerouteNo="0" devices="tripinfo_1_20" vType="DEFAULT_VEHTYPE" speedFactor="1.02" vaporized=""/>
    <tripinfo id="1_26" depart="185.00" departLane="53o_0" departPos="5.10" departSpeed="0.00" departDelay="-0.64" arrival="397.00" arrivalLane="54i_1" arrivalPos="10.00" arrivalSpeed="17.12" duration="212.00" routeLength="615.10" waitingTime="166.00" waitingCount="1" stopTime="0.00" timeLoss="177.08" rerouteNo="0" devices="tripinfo_1_26" vType="DEFAULT_VEHTYPE" speedFactor="0.92" vaporized=""/>
    <tripinfo id="1_25" depart="178.00" departLane="53o_0" departPos="5.10" departSpeed="0.00" departDelay="-0.50" arrival="399.00" arrivalLane="51i_0" arrivalPos="10.00" arrivalSpeed="16.61" duration="221.00" routeLength="617.75" waitingTime="172.00" waitingCount="1" stopTime="0.00" timeLoss="182.83" rerouteNo="0" devices="tripinfo_1_25" vType="DEFAULT_VEHTYPE" speedFactor="0.87" vaporized=""/>
    <tripinfo id="1_44" depart="314.00" departLane="53o_0" departPos="5.10" departSpeed="0.00" departDelay="-0.16" arrival="399.00" arrivalLane="54i_1" arrivalPos="10.00" arrivalSpeed="20.02" duration="85.00" routeLength="615.10" waitingTime="36.00" waitingCount="1" stopTime="0.00" timeLoss="53.78" rerouteNo="0" devices="tripinfo_1_44" vType="DEFAULT_VEHTYPE" speedFactor="1.04" vaporized=""/>
    <tripinfo id="1_28" depart="199.00" departLane="53o_0" departPos="5.10" departSpeed="0.00" departDelay="-0.92" arrival="400.00" arrivalLane="51i_0" arrivalPos="10.00" arrivalSpeed="17.71" duration="201.00" routeLength="617.75" waitingTime="154.00" waitingCount="1" stopTime="0.00" timeLoss="171.85" rerouteNo="0" devices="tripinfo_1_28" vType="DEFAULT_VEHTYPE" speedFactor="1.13" vaporized=""/>
    <tripinfo id="1_47" depart="335.00" departLane="53o_0" departPos="5.10" departSpeed="0.00" departDelay="-0.58" arrival="403.00" arrivalLane="52i_0" arrivalPos="10.00" arrivalSpeed="16.89" duration="68.00" routeLength="596.93" waitingTime="18.00" waitingCount="1" stopTime="0.00" timeLoss="31.91" rerouteNo="0" devices="tripinfo_1_47" vType="DEFAULT_VEHTYPE" speedFactor="0.90" vaporized=""/>
    <tripinfo id="1_49" depart="349.00" departLane="53o_0" departPos="5.10" departSpeed="0.00" departDelay="-0.86" arrival="405.00" arrivalLane="51i_0" arrivalPos="10.00" arrivalSpeed="16.14" duration="56.00" routeLength="617.75" waitingTime="3.00" waitingCount="1" stopTime="0.00" timeLoss="16.82" rerouteNo="0" devices="tripinfo_1_49" vType="DEFAULT_VEHTYPE" speedFactor="0.85" vaporized=""/>
    <tripinfo id="1_52" depart="371.00" departLane="53o_0" departPos="5.10" departSpeed="0.00" departDelay="-0.28" arrival="409.00" arrivalLane="54i_0" arrivalPos="10.00" arrivalSpeed="18.78" duration="38.00" routeLength="615.10" waitingTime="0.00" waitingCount="0" stopTime="0.00" timeLoss="5.99" rerouteNo="0" devices="tripinfo_1_52" vType="DEFAULT_VEHTYPE" speedFactor="1.02" vaporized=""/>
    <tripinfo id="1_53" depart="378.00" departLane="53o_0" departPos="5.10" departSpeed="0.00" departDelay="-0.42" arrival="417.00" arrivalLane="52i_0" arrivalPos="10.00" arrivalSpeed="20.63" duration="39.00" routeLength="596.93" waitingTime="0.00" waitingCount="0" stopTime="0.00" timeLoss="9.73" rerouteNo="0" devices="tripinfo_1_53" vType="DEFAULT_VEHTYPE" speedFactor="1.10" vaporized=""/>
    <tripinfo id="1_56" depart="399.00" departLane="53o_0" departPos="5.10" departSpeed="0.00" departDelay="-0.84" arrival="443.00" arrivalLane="52i_0" arrivalPos="10.00" arrivalSpeed="17.10" duration="44.00" routeLength="596.93" waitingTime="0.00" waitingCount="0" stopTime="0.00" timeLoss="7.93" rerouteNo="0" devices="tripinfo_1_56" vType="DEFAULT_VEHTYPE" speedFactor="0.90" vaporized=""/>
    <tripinfo id="1_58" depart="414.00" departLane="53o_0" departPos="5.10" departSpeed="0.00" departDelay="-0.12" arrival="455.00" arrivalLane="52i_0" arrivalPos="10.00" arrivalSpeed="19.43" duration="41.00" routeLength="596.93" waitingTime="0.00" waitingCount="0" stopTime="0.00" timeLoss="9.36" rerouteNo="0" devices="tripinfo_1_58" vType="DEFAULT_VEHTYPE" speedFactor="1.02" vaporized=""/>
    <tripinfo id="1_43" depart="307.00" departLane="51o_0" departPos="5.10" departSpeed="0.00" departDelay="-0.02" arrival="508.00" arrivalLane="52i_1" arrivalPos="10.00" arrivalSpeed="18.93" duration="201.00" routeLength="615.10" waitingTime="157.00" waitingCount="1" stopTime="0.00" timeLoss="170.31" rerouteNo="0" devices="tripinfo_1_43" vType="DEFAULT_VEHTYPE" speedFactor="1.04" vaporized=""/>
    <tripinfo id="1_29" depart="207.00" departLane="51o_0" departPos="5.10" departSpeed="0.00" departDelay="-0.06" arrival="509.00" arrivalLane="53i_0" arrivalPos="10.00" arrivalSpeed="17.44" duration="302.00" routeLength="596.93" waitingTime="257.00" waitingCount="1" stopTime="0.00" timeLoss="268.02" rerouteNo="0" devices="tripinfo_1_29" vType="DEFAULT_VEHTYPE" speedFactor="0.93" vaporized=""/>
    <tripinfo id="1_34" depart="242.00" departLane="51o_0" departPos="5.10" departSpeed="0.00" departDelay="-0.76" arrival="510.00" arrivalLane="54i_0" arrivalPos="10.00" arrivalSpeed="19.09" duration="268.00" routeLength="617.75" waitingTime="222.00" waitingCount="1" stopTime="0.00" timeLoss="234.24" rerouteNo="0" devices="tripinfo_1_34" vType="DEFAULT_VEHTYPE" speedFactor="0.99" vaporized=""/>
    <tripinfo id="1_60" depart="428.00" departLane="51o_0" departPos="5.10" departSpeed="0.00" departDelay="-0.40" arrival="510.00" arrivalLane="52i_1" arrivalPos="10.00" arrivalSpeed="20.97" duration="82.00" routeLength="615.10" waitingTime="34.00" waitingCount="2" stopTime="0.00" timeLoss="52.06" rerouteNo="0" devices="tripinfo_1_60" vType="DEFAULT_VEHTYPE" speedFactor="1.08" vaporized=""/>
    <tripinfo id="1_32" depart="228.00" departLane="51o_0" departPos="5.10" departSpeed="0.00" departDelay="-0.48" arrival="511.00" arrivalLane="53i_0" arrivalPos="10.00" arrivalSpeed="18.79" duration="283.00" routeLength="596.93" waitingTime="238.00" waitingCount="1" stopTime="0.00" timeLoss="251.39" rerouteNo="0" devices="tripinfo_1_32" vType="DEFAULT_VEHTYPE" speedFactor="1.01" vaporized=""/>
    <tripinfo id="1_36" depart="257.00" departLane="51o_0" departPos="5.10" departSpeed="0.00" departDelay="-0.04" arrival="512.00" arrivalLane="54i_0" arrivalPos="10.00" arrivalSpeed="18.58" duration="255.00" routeLength="617.75" waitingTime="208.00" waitingCount="1" stopTime="0.00" timeLoss="220.65" rerouteNo="0" devices="tripinfo_1_36" vType="DEFAULT_VEHTYPE" speedFactor="0.97" vaporized=""/>
    <tripinfo id="1_37" depart="264.00" departLane="51o_0" departPos="5.10" departSpeed="0.00" departDelay="-0.18" arrival="512.00" arrivalLane="53i_0" arrivalPos="10.00" arrivalSpeed="22.09" duration="248.00" routeLength="596.93" waitingTime="203.00" waitingCount="1" stopTime="0.00" timeLoss="220.90" rerouteNo="0" devices="tripinfo_1_37" vType="DEFAULT_VEHTYPE" speedFactor="1.18" vaporized=""/>
    <tripinfo id="1_46" depart="328.00" departLane="51o_0" departPos="5.10" departSpeed="0.00" departDelay="-0.44" arrival="516.00" arrivalLane="53i_0" arrivalPos="10.00" arrivalSpeed="19.34" duration="188.00" routeLength="596.93" waitingTime="140.00" waitingCount="1" stopTime="0.00" timeLoss="156.01" rerouteNo="0" devices="tripinfo_1_46" vType="DEFAULT_VEHTYPE" speedFactor="1.00" vaporized=""/>
    <tripinfo id="1_64" depart="456.00" departLane="51o_0" departPos="5.10" departSpeed="0.00" departDelay="-0.96" arrival="516.00" arrivalLane="54i_0" arrivalPos="10.00" arrivalSpeed="17.45" duration="60.00" routeLength="617.75" waitingTime="11.00" waitingCount="1" stopTime="0.00" timeLoss="24.67" rerouteNo="0" devices="tripinfo_1_64" vType="DEFAULT_VEHTYPE" speedFactor="0.94" vaporized=""/>
    <tripinfo id="1_67" depart="478.00" departLane="51o_0" departPos="5.10" departSpeed="0.00" departDelay="-0.38" arrival="518.00" arrivalLane="52i_2" arrivalPos="10.00" arrivalSpeed="16.68" duration="40.00" routeLength="615.10" waitingTime="0.00" waitingCount="0" stopTime="0.00" timeLoss="5.20" rerouteNo="0" devices="tripinfo_1_67" vType="DEFAULT_VEHTYPE" speedFactor="0.91" vaporized=""/>
    <tripinfo id="1_48" depart="342.00" departLane="51o_0" departPos="5.10" departSpeed="0.00" departDelay="-0.72" arrival="521.00" arrivalLane="53i_0" arrivalPos="10.00" arrivalSpeed="16.45" duration="179.00" routeLength="596.93" waitingTime="127.00" waitingCount="1" stopTime="0.00" timeLoss="142.71" rerouteNo="0" devices="tripinfo_1_48" vType="DEFAULT_VEHTYPE" speedFactor="0.88" vaporized=""/>
    <tripinfo id="1_54" depart="385.00" departLane="51o_0" departPos="5.10" departSpeed="0.00" departDelay="-0.56" arrival="523.00" arrivalLane="53i_0" arrivalPos="10.00" arrivalSpeed="18.32" duration="138.00" routeLength="596.93" waitingTime="85.00" waitingCount="1" stopTime="0.00" timeLoss="105.68" rerouteNo="0" devices="tripinfo_1_54" vType="DEFAULT_VEHTYPE" speedFactor="1.00" vaporized=""/>
    <tripinfo id="1_61" depart="435.00" departLane="51o_0" departPos="5.10" departSpeed="0.00" departDelay="-0.54" arrival="524.00" arrivalLane="53i_0" arrivalPos="10.00" arrivalSpeed="21.34" duration="89.00" routeLength="596.93" waitingTime="39.00" waitingCount="1" stopTime="0.00" timeLoss="60.84" rerouteNo="0" devices="tripinfo_1_61" vType="DEFAULT_VEHTYPE" speedFactor="1.12" vaporized=""/>
    <tripinfo id="1_63" depart="449.00" departLane="51o_0" departPos="5.10" departSpeed="0.00" departDelay="-0.82" arrival="527.00" arrivalLane="53i_0" arrivalPos="10.00" arrivalSpeed="18.23" duration="78.00" routeLength="596.93" waitingTime="25.00" waitingCount="1" stopTime="0.00" timeLoss="45.33" rerouteNo="0" devices="tripinfo_1_63" vType="DEFAULT_VEHTYPE" speedFactor="0.99" vaporized=""/>
    <tripinfo id="1_70" depart="499.00" departLane="51o_0" departPos="5.10" departSpeed="0.00" departDelay="-0.80" arrival="540.00" arrivalLane="53i_0" arrivalPos="10.00" arrivalSpeed="18.82" duration="41.00" routeLength="596.93" waitingTime="0.00" waitingCount="0" stopTime="0.00" timeLoss="10.20" rerouteNo="0" devices="tripinfo_1_70" vType="DEFAULT_VEHTYPE" speedFactor="1.02" vaporized=""/>
    <tripinfo id="1_77" depart="549.00" departLane="51o_0" departPos="5.10" departSpeed="0.00" departDelay="-0.78" arrival="587.00" arrivalLane="52i_0" arrivalPos="10.00" arrivalSpeed="19.03" duration="38.00" routeLength="615.10" waitingTime="0.00" waitingCount="0" stopTime="0.00" timeLoss="5.24" rerouteNo="0" devices="tripinfo_1_77" vType="DEFAULT_VEHTYPE" speedFactor="0.98" vaporized=""/>
    <tripinfo id="1_35" depart="249.00" departLane="54o_0" departPos="5.10" departSpeed="0.00" departDelay="-0.90" arrival="594.00" arrivalLane="51i_0" arrivalPos="10.00" arrivalSpeed="18.74" duration="345.00" routeLength="596.93" waitingTime="300.00" waitingCount="1" stopTime="0.00" timeLoss="313.74" rerouteNo="0" devices="tripinfo_1_35" vType="DEFAULT_VEHTYPE" speedFactor="1.02" vaporized=""/>
    <tripinfo id="1_40" depart="285.00" departLane="54o_0" departPos="5.10" departSpeed="0.00" departDelay="-0.60" arrival="596.00" arrivalLane="53i_0" arrivalPos="10.00" arrivalSpeed="18.06" duration="311.00" routeLength="615.10" waitingTime="265.00" waitingCount="1" stopTime="0.00" timeLoss="279.64" rerouteNo="0" devices="tripinfo_1_40" vType="DEFAULT_VEHTYPE" speedFactor="1.03" vaporized=""/>
    <tripinfo id="1_41" depart="292.00" departLane="54o_0" departPos="5.10" departSpeed="0.00" departDelay="-0.74" arrival="596.00" arrivalLane="53i_1" arrivalPos="10.00" arrivalSpeed="18.15" duration="304.00" routeLength="615.10" waitingTime="257.00" waitingCount="1" stopTime="0.00" timeLoss="270.20" rerouteNo="0" devices="tripinfo_1_41" vType="DEFAULT_VEHTYPE" speedFactor="0.96" vaporized=""/>
    <tripinfo id="1_45" depart="321.00" departLane="54o_0" departPos="5.10" departSpeed="0.00" departDelay="-0.30" arrival="596.00" arrivalLane="51i_0" arrivalPos="10.00" arrivalSpeed="20.91" duration="275.00" routeLength="596.93" waitingTime="231.00" waitingCount="1" stopTime="0.00" timeLoss="245.20" rerouteNo="0" devices="tripinfo_1_45" vType="DEFAULT_VEHTYPE" speedFactor="1.09" vaporized=""/>
    <tripinfo id="1_42" depart="299.00" departLane="54o_0" departPos="5.10" departSpeed="0.00" departDelay="-0.88" arrival="597.00" arrivalLane="52i_0" arrivalPos="10.00" arrivalSpeed="20.83" duration="298.00" routeLength="617.75" waitingTime="253.00" waitingCount="1" stopTime="0.00" timeLoss="268.01" rerouteNo="0" devices="tripinfo_1_42" vType="DEFAULT_VEHTYPE" speedFactor="1.09" vaporized=""/>
    <tripinfo id="1_51" depart="364.00" departLane="54o_0" departPos="5.10" departSpeed="0.00" departDelay="-0.14" arrival="598.00" arrivalLane="53i_2" arrivalPos="10.00" arrivalSpeed="22.48" duration="234.00" routeLength="615.10" waitingTime="190.00" waitingCount="1" stopTime="0.00" timeLoss="206.28" rerouteNo="0" devices="tripinfo_1_51" vType="DEFAULT_VEHTYPE" speedFactor="1.17" vaporized=""/>
    <tripinfo id="1_55" depart="392.00" departLane="54o_0" departPos="5.10" departSpeed="0.00" departDelay="-0.70" arrival="599.00" arrivalLane="51i_0" arrivalPos="10.00" arrivalSpeed="19.31" duration="207.00" routeLength="596.93" waitingTime="161.00" waitingCount="1" stopTime="0.00" timeLoss="175.16" rerouteNo="0" devices="tripinfo_1_55" vType="DEFAULT_VEHTYPE" speedFactor="1.00" vaporized=""/>
    <tripinfo id="1_50" depart="357.00" departLane="54o_0" departPos="5.10" departSpeed="0.00" departDelay="0.00" arrival="600.00" arrivalLane="53i_1" arrivalPos="10.00" arrivalSpeed="15.43" duration="243.00" routeLength="615.10" waitingTime="192.00" waitingCount="1" stopTime="0.00" timeLoss="205.19" rerouteNo="0" devices="tripinfo_1_50" vType="DEFAULT_VEHTYPE" speedFactor="0.85" vaporized=""/>
    <tripinfo id="1_62" depart="442.00" departLane="54o_0" departPos="5.10" departSpeed="0.00" departDelay="-0.68" arrival="601.00" arrivalLane="53i_1" arrivalPos="10.00" arrivalSpeed="17.80" duration="159.00" routeLength="615.10" waitingTime="108.00" waitingCount="2" stopTime="0.00" timeLoss="127.53" rerouteNo="0" devices="tripinfo_1_62" vType="DEFAULT_VEHTYPE" speedFactor="1.02" vaporized=""/>
    <tripinfo id="1_68" depart="485.00" departLane="54o_0" departPos="5.10" departSpeed="0.00" departDelay="-0.52" arrival="601.00" arrivalLane="51i_0" arrivalPos="10.00" arrivalSpeed="19.83" duration="116.00" routeLength="596.93" waitingTime="70.00" waitingCount="1" stopTime="0.00" timeLoss="84.95" rerouteNo="0" devices="tripinfo_1_68" vType="DEFAULT_VEHTYPE" speedFactor="1.04" vaporized=""/>
    <tripinfo id="1_66" depart="471.00" departLane="54o_0" departPos="5.10" departSpeed="0.00" departDelay="-0.24" arrival="604.00" arrivalLane="52i_0" arrivalPos="10.00" arrivalSpeed="17.62" duration="133.00" routeLength="617.75" waitingTime="82.00" waitingCount="1" stopTime="0.00" timeLoss="96.71" rerouteNo="0" devices="tripinfo_1_66" vType="DEFAULT_VEHTYPE" speedFactor="0.91" vaporized=""/>
    <tripinfo id="1_69" depart="492.00" departLane="54o_0" departPos="5.10" departSpeed="0.00" departDelay="-0.66" arrival="604.00" arrivalLane="51i_0" arrivalPos="10.00" arrivalSpeed="19.71" duration="112.00" routeLength="596.93" waitingTime="64.00" waitingCount="1" stopTime="0.00" timeLoss="80.98" rerouteNo="0" devices="tripinfo_1_69" vType="DEFAULT_VEHTYPE" speedFactor="1.02" vaporized=""/>
    <tripinfo id="1_73" depart="521.00" departLane="54o_0" departPos="5.10" departSpeed="0.00" departDelay="-0.22" arrival="606.00" arrivalLane="52i_0" arrivalPos="10.00" arrivalSpeed="20.01" duration="85.00" routeLength="617.75" waitingTime="36.00" waitingCount="1" stopTime="0.00" timeLoss="53.35" rerouteNo="0" devices="tripinfo_1_73" vType="DEFAULT_VEHTYPE" speedFactor="1.06" vaporized=""/>
    <tripinfo id="1_82" depart="585.00" departLane="54o_0" departPos="5.10" departSpeed="0.00" departDelay="-0.48" arrival="621.00" arrivalLane="3o_0" arrivalPos="286.40" arrivalSpeed="19.58" duration="36.00" routeLength="605.00" waitingTime="0.00" waitingCount="0" stopTime="0.00" timeLoss="5.37" rerouteNo="0" devices="tripinfo_1_82" vType="DEFAULT_VEHTYPE" speedFactor="1.02" vaporized=""/>
    <tripinfo id="1_57" depart="406.00" departLane="52o_0" departPos="5.10" departSpeed="0.00" departDelay="-0.98" arrival="640.00" arrivalLane="51i_0" arrivalPos="10.00" arrivalSpeed="21.31" duration="234.00" routeLength="615.10" waitingTime="193.00" waitingCount="1" stopTime="0.00" timeLoss="206.16" rerouteNo="0" devices="tripinfo_1_57" vType="DEFAULT_VEHTYPE" speedFactor="1.14" vaporized=""/>
    <tripinfo id="1_59" depart="421.00" departLane="52o_0" departPos="5.10" departSpeed="0.00" departDelay="-0.26" arrival="643.00" arrivalLane="53i_0" arrivalPos="10.00" arrivalSpeed="18.42" duration="222.00" routeLength="617.75" waitingTime="176.00" waitingCount="1" stopTime="0.00" timeLoss="187.66" rerouteNo="0" devices="tripinfo_1_59" vType="DEFAULT_VEHTYPE" speedFactor="0.97" vaporized=""/>