<?xml version="1.0" encoding="UTF-8"?>

<!-- generated on Sun Sep 15 17:46:23 2019 by Eclipse SUMO GUI Version 1.2.0
<configuration xmlns:xsi="http://www.w3.org/2001/XMLSchema-instance" xsi:noNamespaceSchemaLocation="http://sumo.dlr.de/xsd/sumoConfiguration.xsd">

    <input>
        <net-file value="data/cross.net.xml"/>
        <route-files value="data/cross.rou.xml"/>
        <additional-files value="data/cross.tlsp.xml"/>
    </input>

    <output>
        <tripinfo-output value="tripinfo_isolated.xml"/>
    </output>

    <time>
        <begin value="0"/>
    </time>

    <report>
        <verbose value="true"/>
        <no-step-log value="true"/>
    </report>

    <traci_server>
        <remote-port value="34541"/>
    </traci_server>

</configuration>
-->

<detector xmlns:xsi="http://www.w3.org/2001/XMLSchema-instance" xsi:noNamespaceSchemaLocation="http://sumo.dlr.de/xsd/det_e1_file.xsd">
    <interval begin="0.00" end="30.00" id="0" nVehContrib="0" flow="0.00" occupancy="0.00" speed="-1.00" harmonicMeanSpeed="-1.00" length="-1.00" nVehEntered="0"/>
    <interval begin="30.00" end="60.00" id="0" nVehContrib="2" flow="240.00" occupancy="2.50" speed="18.68" harmonicMeanSpeed="18.65" length="7.00" nVehEntered="2"/>
    <interval begin="60.00" end="85.00" id="0" nVehContrib="3" flow="432.00" occupancy="5.22" speed="16.12" harmonicMeanSpeed="16.10" length="7.00" nVehEntered="3"/>
</detector>
