<?xml version="1.0" encoding="UTF-8"?>

<!-- generated on Sun Sep  8 05:27:18 2019 by Eclipse SUMO GUI Version 1.2.0
<configuration xmlns:xsi="http://www.w3.org/2001/XMLSchema-instance" xsi:noNamespaceSchemaLocation="http://sumo.dlr.de/xsd/sumoConfiguration.xsd">

    <input>
        <net-file value="data/cross.net.xml"/>
        <route-files value="data/cross.rou.xml"/>
        <additional-files value="data/cross.tlsp.xml"/>
    </input>

    <output>
        <tripinfo-output value="tripinfo.xml"/>
    </output>

    <time>
        <begin value="0"/>
    </time>

    <report>
        <verbose value="true"/>
        <no-step-log value="true"/>
    </report>

    <traci_server>
        <remote-port value="47687"/>
    </traci_server>

</configuration>
-->

<detector xmlns:xsi="http://www.w3.org/2001/XMLSchema-instance" xsi:noNamespaceSchemaLocation="http://sumo.dlr.de/xsd/det_e1_file.xsd">
    <interval begin="0.00" end="300.00" id="TLS0_actuated_gap_InductLoopOn_4i_0" nVehContrib="4" flow="48.00" occupancy="0.54" speed="17.71" harmonicMeanSpeed="17.30" length="7.00" nVehEntered="4"/>
    <interval begin="0.00" end="300.00" id="TLS0_actuated_gap_InductLoopOn_2i_0" nVehContrib="28" flow="336.00" occupancy="6.88" speed="10.89" harmonicMeanSpeed="6.78" length="5.00" nVehEntered="28"/>
    <interval begin="0.00" end="300.00" id="TLS0_actuated_gap_InductLoopOn_3i_0" nVehContrib="0" flow="0.00" occupancy="0.00" speed="-1.00" harmonicMeanSpeed="-1.00" length="-1.00" nVehEntered="0"/>
    <interval begin="0.00" end="300.00" id="TLS0_actuated_gap_InductLoopOn_1i_0" nVehContrib="22" flow="264.00" occupancy="4.50" speed="11.63" harmonicMeanSpeed="8.16" length="5.00" nVehEntered="22"/>
   <interval begin="0.00" end="300.00" id="TLS0_actuated_delay_E2CollectorOn_4i_0" sampledSeconds="53.48" nVehEntered="4" nVehLeft="4" nVehSeen="4" meanSpeed="8.00" meanTimeLoss="7.25" meanOccupancy="1.18" maxOccupancy="7.00" meanMaxJamLengthInVehicles="0.00" meanMaxJamLengthInMeters="0.00" maxJamLengthInVehicles="0" maxJamLengthInMeters="0.00" jamLengthInVehiclesSum="0" jamLengthInMetersSum="0.00" meanHaltingDuration="0.00" maxHaltingDuration="0.00" haltingDurationSum="0.00" meanIntervalHaltingDuration="0.00" maxIntervalHaltingDuration="0.00" intervalHaltingDurationSum="0.00" startedHalts="0.00" meanVehicleNumber="0.19" maxVehicleNumber="2" />
   <interval begin="0.00" end="300.00" id="TLS0_actuated_delay_E2CollectorOn_2i_0" sampledSeconds="671.46" nVehEntered="28" nVehLeft="28" nVehSeen="28" meanSpeed="4.38" meanTimeLoss="17.63" meanOccupancy="10.90" maxOccupancy="35.00" meanMaxJamLengthInVehicles="0.00" meanMaxJamLengthInMeters="0.00" maxJamLengthInVehicles="0" maxJamLengthInMeters="0.00" jamLengthInVehiclesSum="0" jamLengthInMetersSum="0.00" meanHaltingDuration="0.00" maxHaltingDuration="0.00" haltingDurationSum="0.00" meanIntervalHaltingDuration="0.00" maxIntervalHaltingDuration="0.00" intervalHaltingDurationSum="0.00" startedHalts="0.00" meanVehicleNumber="2.34" maxVehicleNumber="7" />
   <interval begin="0.00" end="300.00" id="TLS0_actuated_delay_E2CollectorOn_3i_0" sampledSeconds="0.00" nVehEntered="0" nVehLeft="0" nVehSeen="0" meanSpeed="-1.00" meanTimeLoss="-1.00" meanOccupancy="0.00" maxOccupancy="0.00" meanMaxJamLengthInVehicles="0.00" meanMaxJamLengthInMeters="0.00" maxJamLengthInVehicles="0" maxJamLengthInMeters="0.00" jamLengthInVehiclesSum="0" jamLengthInMetersSum="0.00" meanHaltingDuration="0.00" maxHaltingDuration="0.00" haltingDurationSum="0.00" meanIntervalHaltingDuration="0.00" maxIntervalHaltingDuration="0.00" intervalHaltingDurationSum="0.00" startedHalts="0.00" meanVehicleNumber="0.00" maxVehicleNumber="0" />
   <interval begin="0.00" end="300.00" id="TLS0_actuated_delay_E2CollectorOn_1i_0" sampledSeconds="411.74" nVehEntered="22" nVehLeft="22" nVehSeen="22" meanSpeed="5.61" meanTimeLoss="12.34" meanOccupancy="6.60" maxOccupancy="25.03" meanMaxJamLengthInVehicles="0.00" meanMaxJamLengthInMeters="0.00" maxJamLengthInVehicles="0" maxJamLengthInMeters="0.00" jamLengthInVehiclesSum="0" jamLengthInMetersSum="0.00" meanHaltingDuration="0.00" maxHaltingDuration="0.00" haltingDurationSum="0.00" meanIntervalHaltingDuration="0.00" maxIntervalHaltingDuration="0.00" intervalHaltingDurationSum="0.00" startedHalts="0.00" meanVehicleNumber="1.45" maxVehicleNumber="6" />
    <interval begin="300.00" end="600.00" id="TLS0_actuated_gap_InductLoopOn_4i_0" nVehContrib="11" flow="132.00" occupancy="2.23" speed="12.89" harmonicMeanSpeed="11.49" length="7.00" nVehEntered="11"/>
    <interval begin="300.00" end="600.00" id="TLS0_actuated_gap_InductLoopOn_2i_0" nVehContrib="22" flow="264.00" occupancy="5.38" speed="10.56" harmonicMeanSpeed="6.82" length="5.00" nVehEntered="22"/>
    <interval begin="300.00" end="600.00" id="TLS0_actuated_gap_InductLoopOn_3i_0" nVehContrib="0" flow="0.00" occupancy="0.00" speed="-1.00" harmonicMeanSpeed="-1.00" length="-1.00" nVehEntered="0"/>
    <interval begin="300.00" end="600.00" id="TLS0_actuated_gap_InductLoopOn_1i_0" nVehContrib="25" flow="300.00" occupancy="6.50" speed="10.14" harmonicMeanSpeed="6.41" length="5.00" nVehEntered="25"/>
   <interval begin="300.00" end="600.00" id="TLS0_actuated_delay_E2CollectorOn_4i_0" sampledSeconds="173.34" nVehEntered="11" nVehLeft="11" nVehSeen="11" meanSpeed="6.79" meanTimeLoss="10.17" meanOccupancy="3.83" maxOccupancy="21.00" meanMaxJamLengthInVehicles="0.00" meanMaxJamLengthInMeters="0.00" maxJamLengthInVehicles="0" maxJamLengthInMeters="0.00" jamLengthInVehiclesSum="0" jamLengthInMetersSum="0.00" meanHaltingDuration="0.00" maxHaltingDuration="0.00" haltingDurationSum="0.00" meanIntervalHaltingDuration="0.00" maxIntervalHaltingDuration="0.00" intervalHaltingDurationSum="0.00" startedHalts="0.00" meanVehicleNumber="0.62" maxVehicleNumber="3" />
   <interval begin="300.00" end="600.00" id="TLS0_actuated_delay_E2CollectorOn_2i_0" sampledSeconds="562.53" nVehEntered="23" nVehLeft="19" nVehSeen="23" meanSpeed="4.14" meanTimeLoss="18.33" meanOccupancy="9.15" maxOccupancy="25.00" meanMaxJamLengthInVehicles="0.00" meanMaxJamLengthInMeters="0.00" maxJamLengthInVehicles="0" maxJamLengthInMeters="0.00" jamLengthInVehiclesSum="0" jamLengthInMetersSum="0.00" meanHaltingDuration="0.00" maxHaltingDuration="0.00" haltingDurationSum="0.00" meanIntervalHaltingDuration="0.00" maxIntervalHaltingDuration="0.00" intervalHaltingDurationSum="0.00" startedHalts="0.00" meanVehicleNumber="1.95" maxVehicleNumber="6" />
   <interval begin="300.00" end="600.00" id="TLS0_actuated_delay_E2CollectorOn_3i_0" sampledSeconds="0.00" nVehEntered="0" nVehLeft="0" nVehSeen="0" meanSpeed="-1.00" meanTimeLoss="-1.00" meanOccupancy="0.00" maxOccupancy="0.00" meanMaxJamLengthInVehicles="0.00" meanMaxJamLengthInMeters="0.00" maxJamLengthInVehicles="0" maxJamLengthInMeters="0.00" jamLengthInVehiclesSum="0" jamLengthInMetersSum="0.00" meanHaltingDuration="0.00" maxHaltingDuration="0.00" haltingDurationSum="0.00" meanIntervalHaltingDuration="0.00" maxIntervalHaltingDuration="0.00" intervalHaltingDurationSum="0.00" startedHalts="0.00" meanVehicleNumber="0.00" maxVehicleNumber="0" />
   <interval begin="300.00" end="600.00" id="TLS0_actuated_delay_E2CollectorOn_1i_0" sampledSeconds="631.26" nVehEntered="25" nVehLeft="24" nVehSeen="25" meanSpeed="4.15" meanTimeLoss="18.91" meanOccupancy="10.23" maxOccupancy="39.41" meanMaxJamLengthInVehicles="0.00" meanMaxJamLengthInMeters="0.00" maxJamLengthInVehicles="0" maxJamLengthInMeters="0.00" jamLengthInVehiclesSum="0" jamLengthInMetersSum="0.00" meanHaltingDuration="0.00" maxHaltingDuration="0.00" haltingDurationSum="0.00" meanIntervalHaltingDuration="0.00" maxIntervalHaltingDuration="0.00" intervalHaltingDurationSum="0.00" startedHalts="0.00" meanVehicleNumber="2.18" maxVehicleNumber="8" />
    <interval begin="600.00" end="900.00" id="TLS0_actuated_gap_InductLoopOn_4i_0" nVehContrib="13" flow="156.00" occupancy="1.78" speed="17.37" harmonicMeanSpeed="17.06" length="7.00" nVehEntered="13"/>
    <interval begin="600.00" end="900.00" id="TLS0_actuated_gap_InductLoopOn_2i_0" nVehContrib="27" flow="324.00" occupancy="6.04" speed="10.64" harmonicMeanSpeed="7.45" length="5.00" nVehEntered="27"/>
    <interval begin="600.00" end="900.00" id="TLS0_actuated_gap_InductLoopOn_3i_0" nVehContrib="0" flow="0.00" occupancy="0.00" speed="-1.00" harmonicMeanSpeed="-1.00" length="-1.00" nVehEntered="0"/>
    <interval begin="600.00" end="900.00" id="TLS0_actuated_gap_InductLoopOn_1i_0" nVehContrib="18" flow="216.00" occupancy="3.71" speed="12.12" harmonicMeanSpeed="8.10" length="5.00" nVehEntered="19"/>
   <interval begin="600.00" end="900.00" id="TLS0_actuated_delay_E2CollectorOn_4i_0" sampledSeconds="144.96" nVehEntered="13" nVehLeft="13" nVehSeen="13" meanSpeed="9.60" meanTimeLoss="5.62" meanOccupancy="3.18" maxOccupancy="13.45" meanMaxJamLengthInVehicles="0.00" meanMaxJamLengthInMeters="0.00" maxJamLengthInVehicles="0" maxJamLengthInMeters="0.00" jamLengthInVehiclesSum="0" jamLengthInMetersSum="0.00" meanHaltingDuration="0.00" maxHaltingDuration="0.00" haltingDurationSum="0.00" meanIntervalHaltingDuration="0.00" maxIntervalHaltingDuration="0.00" intervalHaltingDurationSum="0.00" startedHalts="0.00" meanVehicleNumber="0.52" maxVehicleNumber="2" />
   <interval begin="600.00" end="900.00" id="TLS0_actuated_delay_E2CollectorOn_2i_0" sampledSeconds="623.16" nVehEntered="27" nVehLeft="28" nVehSeen="31" meanSpeed="4.49" meanTimeLoss="14.60" meanOccupancy="10.08" maxOccupancy="30.76" meanMaxJamLengthInVehicles="0.00" meanMaxJamLengthInMeters="0.00" maxJamLengthInVehicles="0" maxJamLengthInMeters="0.00" jamLengthInVehiclesSum="0" jamLengthInMetersSum="0.00" meanHaltingDuration="0.00" maxHaltingDuration="0.00" haltingDurationSum="0.00" meanIntervalHaltingDuration="0.00" maxIntervalHaltingDuration="0.00" intervalHaltingDurationSum="0.00" startedHalts="0.00" meanVehicleNumber="2.17" maxVehicleNumber="7" />
   <interval begin="600.00" end="900.00" id="TLS0_actuated_delay_E2CollectorOn_3i_0" sampledSeconds="0.00" nVehEntered="0" nVehLeft="0" nVehSeen="0" meanSpeed="-1.00" meanTimeLoss="-1.00" meanOccupancy="0.00" maxOccupancy="0.00" meanMaxJamLengthInVehicles="0.00" meanMaxJamLengthInMeters="0.00" maxJamLengthInVehicles="0" maxJamLengthInMeters="0.00" jamLengthInVehiclesSum="0" jamLengthInMetersSum="0.00" meanHaltingDuration="0.00" maxHaltingDuration="0.00" haltingDurationSum="0.00" meanIntervalHaltingDuration="0.00" maxIntervalHaltingDuration="0.00" intervalHaltingDurationSum="0.00" startedHalts="0.00" meanVehicleNumber="0.00" maxVehicleNumber="0" />
   <interval begin="600.00" end="900.00" id="TLS0_actuated_delay_E2CollectorOn_1i_0" sampledSeconds="332.33" nVehEntered="20" nVehLeft="18" nVehSeen="21" meanSpeed="5.91" meanTimeLoss="10.17" meanOccupancy="5.39" maxOccupancy="27.14" meanMaxJamLengthInVehicles="0.00" meanMaxJamLengthInMeters="0.00" maxJamLengthInVehicles="0" maxJamLengthInMeters="0.00" jamLengthInVehiclesSum="0" jamLengthInMetersSum="0.00" meanHaltingDuration="0.00" maxHaltingDuration="0.00" haltingDurationSum="0.00" meanIntervalHaltingDuration="0.00" maxIntervalHaltingDuration="0.00" intervalHaltingDurationSum="0.00" startedHalts="0.00" meanVehicleNumber="1.17" maxVehicleNumber="6" />
    <interval begin="900.00" end="1200.00" id="TLS0_actuated_gap_InductLoopOn_4i_0" nVehContrib="9" flow="108.00" occupancy="1.28" speed="16.82" harmonicMeanSpeed="16.47" length="7.00" nVehEntered="9"/>
    <interval begin="900.00" end="1200.00" id="TLS0_actuated_gap_InductLoopOn_2i_0" nVehContrib="31" flow="372.00" occupancy="5.98" speed="11.86" harmonicMeanSpeed="8.64" length="5.00" nVehEntered="31"/>
    <interval begin="900.00" end="1200.00" id="TLS0_actuated_gap_InductLoopOn_3i_0" nVehContrib="0" flow="0.00" occupancy="0.00" speed="-1.00" harmonicMeanSpeed="-1.00" length="-1.00" nVehEntered="0"/>
    <interval begin="900.00" end="1200.00" id="TLS0_actuated_gap_InductLoopOn_1i_0" nVehContrib="27" flow="324.00" occupancy="4.32" speed="13.23" harmonicMeanSpeed="10.42" length="5.00" nVehEntered="26"/>
   <interval begin="900.00" end="1200.00" id="TLS0_actuated_delay_E2CollectorOn_4i_0" sampledSeconds="158.38" nVehEntered="9" nVehLeft="9" nVehSeen="9" meanSpeed="6.08" meanTimeLoss="11.84" meanOccupancy="3.49" maxOccupancy="7.00" meanMaxJamLengthInVehicles="0.00" meanMaxJamLengthInMeters="0.00" maxJamLengthInVehicles="0" maxJamLengthInMeters="0.00" jamLengthInVehiclesSum="0" jamLengthInMetersSum="0.00" meanHaltingDuration="0.00" maxHaltingDuration="0.00" haltingDurationSum="0.00" meanIntervalHaltingDuration="0.00" maxIntervalHaltingDuration="0.00" intervalHaltingDurationSum="0.00" startedHalts="0.00" meanVehicleNumber="0.56" maxVehicleNumber="2" />
   <interval begin="900.00" end="1200.00" id="TLS0_actuated_delay_E2CollectorOn_2i_0" sampledSeconds="650.77" nVehEntered="31" nVehLeft="30" nVehSeen="34" meanSpeed="4.97" meanTimeLoss="13.38" meanOccupancy="10.50" maxOccupancy="25.00" meanMaxJamLengthInVehicles="0.00" meanMaxJamLengthInMeters="0.00" maxJamLengthInVehicles="0" maxJamLengthInMeters="0.00" jamLengthInVehiclesSum="0" jamLengthInMetersSum="0.00" meanHaltingDuration="0.00" maxHaltingDuration="0.00" haltingDurationSum="0.00" meanIntervalHaltingDuration="0.00" maxIntervalHaltingDuration="0.00" intervalHaltingDurationSum="0.00" startedHalts="0.00" meanVehicleNumber="2.27" maxVehicleNumber="6" />
   <interval begin="900.00" end="1200.00" id="TLS0_actuated_delay_E2CollectorOn_3i_0" sampledSeconds="0.00" nVehEntered="0" nVehLeft="0" nVehSeen="0" meanSpeed="-1.00" meanTimeLoss="-1.00" meanOccupancy="0.00" maxOccupancy="0.00" meanMaxJamLengthInVehicles="0.00" meanMaxJamLengthInMeters="0.00" maxJamLengthInVehicles="0" maxJamLengthInMeters="0.00" jamLengthInVehiclesSum="0" jamLengthInMetersSum="0.00" meanHaltingDuration="0.00" maxHaltingDuration="0.00" haltingDurationSum="0.00" meanIntervalHaltingDuration="0.00" maxIntervalHaltingDuration="0.00" intervalHaltingDurationSum="0.00" startedHalts="0.00" meanVehicleNumber="0.00" maxVehicleNumber="0" />
   <interval begin="900.00" end="1200.00" id="TLS0_actuated_delay_E2CollectorOn_1i_0" sampledSeconds="459.02" nVehEntered="25" nVehLeft="26" nVehSeen="28" meanSpeed="5.98" meanTimeLoss="10.44" meanOccupancy="7.36" maxOccupancy="25.00" meanMaxJamLengthInVehicles="0.00" meanMaxJamLengthInMeters="0.00" maxJamLengthInVehicles="0" maxJamLengthInMeters="0.00" jamLengthInVehiclesSum="0" jamLengthInMetersSum="0.00" meanHaltingDuration="0.00" maxHaltingDuration="0.00" haltingDurationSum="0.00" meanIntervalHaltingDuration="0.00" maxIntervalHaltingDuration="0.00" intervalHaltingDurationSum="0.00" startedHalts="0.00" meanVehicleNumber="1.63" maxVehicleNumber="5" />
    <interval begin="1200.00" end="1500.00" id="TLS0_actuated_gap_InductLoopOn_4i_0" nVehContrib="6" flow="72.00" occupancy="0.97" speed="14.87" harmonicMeanSpeed="14.38" length="7.00" nVehEntered="6"/>
    <interval begin="1200.00" end="1500.00" id="TLS0_actuated_gap_InductLoopOn_2i_0" nVehContrib="23" flow="276.00" occupancy="4.48" speed="12.27" harmonicMeanSpeed="8.56" length="5.00" nVehEntered="23"/>
    <interval begin="1200.00" end="1500.00" id="TLS0_actuated_gap_InductLoopOn_3i_0" nVehContrib="0" flow="0.00" occupancy="0.00" speed="-1.00" harmonicMeanSpeed="-1.00" length="-1.00" nVehEntered="0"/>
    <interval begin="1200.00" end="1500.00" id="TLS0_actuated_gap_InductLoopOn_1i_0" nVehContrib="26" flow="312.00" occupancy="3.84" speed="12.45" harmonicMeanSpeed="11.29" length="5.00" nVehEntered="26"/>
   <interval begin="1200.00" end="1500.00" id="TLS0_actuated_delay_E2CollectorOn_4i_0" sampledSeconds="82.97" nVehEntered="6" nVehLeft="5" nVehSeen="6" meanSpeed="7.64" meanTimeLoss="7.83" meanOccupancy="1.81" maxOccupancy="14.00" meanMaxJamLengthInVehicles="0.00" meanMaxJamLengthInMeters="0.00" maxJamLengthInVehicles="0" maxJamLengthInMeters="0.00" jamLengthInVehiclesSum="0" jamLengthInMetersSum="0.00" meanHaltingDuration="0.00" maxHaltingDuration="0.00" haltingDurationSum="0.00" meanIntervalHaltingDuration="0.00" maxIntervalHaltingDuration="0.00" intervalHaltingDurationSum="0.00" startedHalts="0.00" meanVehicleNumber="0.29" maxVehicleNumber="2" />
   <interval begin="1200.00" end="1500.00" id="TLS0_actuated_delay_E2CollectorOn_2i_0" sampledSeconds="443.26" nVehEntered="22" nVehLeft="25" nVehSeen="26" meanSpeed="5.51" meanTimeLoss="11.35" meanOccupancy="7.07" maxOccupancy="25.00" meanMaxJamLengthInVehicles="0.00" meanMaxJamLengthInMeters="0.00" maxJamLengthInVehicles="0" maxJamLengthInMeters="0.00" jamLengthInVehiclesSum="0" jamLengthInMetersSum="0.00" meanHaltingDuration="0.00" maxHaltingDuration="0.00" haltingDurationSum="0.00" meanIntervalHaltingDuration="0.00" maxIntervalHaltingDuration="0.00" intervalHaltingDurationSum="0.00" startedHalts="0.00" meanVehicleNumber="1.56" maxVehicleNumber="5" />
   <interval begin="1200.00" end="1500.00" id="TLS0_actuated_delay_E2CollectorOn_3i_0" sampledSeconds="0.00" nVehEntered="0" nVehLeft="0" nVehSeen="0" meanSpeed="-1.00" meanTimeLoss="-1.00" meanOccupancy="0.00" maxOccupancy="0.00" meanMaxJamLengthInVehicles="0.00" meanMaxJamLengthInMeters="0.00" maxJamLengthInVehicles="0" maxJamLengthInMeters="0.00" jamLengthInVehiclesSum="0" jamLengthInMetersSum="0.00" meanHaltingDuration="0.00" maxHaltingDuration="0.00" haltingDurationSum="0.00" meanIntervalHaltingDuration="0.00" maxIntervalHaltingDuration="0.00" intervalHaltingDurationSum="0.00" startedHalts="0.00" meanVehicleNumber="0.00" maxVehicleNumber="0" />
   <interval begin="1200.00" end="1500.00" id="TLS0_actuated_delay_E2CollectorOn_1i_0" sampledSeconds="580.03" nVehEntered="26" nVehLeft="26" nVehSeen="28" meanSpeed="4.70" meanTimeLoss="14.74" meanOccupancy="9.37" maxOccupancy="20.00" meanMaxJamLengthInVehicles="0.00" meanMaxJamLengthInMeters="0.00" maxJamLengthInVehicles="0" maxJamLengthInMeters="0.00" jamLengthInVehiclesSum="0" jamLengthInMetersSum="0.00" meanHaltingDuration="0.00" maxHaltingDuration="0.00" haltingDurationSum="0.00" meanIntervalHaltingDuration="0.00" maxIntervalHaltingDuration="0.00" intervalHaltingDurationSum="0.00" startedHalts="0.00" meanVehicleNumber="2.02" maxVehicleNumber="4" />
    <interval begin="1500.00" end="1800.00" id="TLS0_actuated_gap_InductLoopOn_4i_0" nVehContrib="15" flow="180.00" occupancy="4.50" speed="11.84" harmonicMeanSpeed="7.77" length="7.00" nVehEntered="15"/>
    <interval begin="1500.00" end="1800.00" id="TLS0_actuated_gap_InductLoopOn_2i_0" nVehContrib="22" flow="264.00" occupancy="2.63" speed="14.39" harmonicMeanSpeed="13.93" length="5.00" nVehEntered="22"/>
    <interval begin="1500.00" end="1800.00" id="TLS0_actuated_gap_InductLoopOn_3i_0" nVehContrib="0" flow="0.00" occupancy="0.00" speed="-1.00" harmonicMeanSpeed="-1.00" length="-1.00" nVehEntered="0"/>
    <interval begin="1500.00" end="1800.00" id="TLS0_actuated_gap_InductLoopOn_1i_0" nVehContrib="27" flow="324.00" occupancy="6.69" speed="10.71" harmonicMeanSpeed="6.73" length="5.00" nVehEntered="27"/>
   <interval begin="1500.00" end="1800.00" id="TLS0_actuated_delay_E2CollectorOn_4i_0" sampledSeconds="326.49" nVehEntered="16" nVehLeft="15" nVehSeen="17" meanSpeed="5.13" meanTimeLoss="13.91" meanOccupancy="7.30" maxOccupancy="36.77" meanMaxJamLengthInVehicles="0.00" meanMaxJamLengthInMeters="0.00" maxJamLengthInVehicles="0" maxJamLengthInMeters="0.00" jamLengthInVehiclesSum="0" jamLengthInMetersSum="0.00" meanHaltingDuration="0.00" maxHaltingDuration="0.00" haltingDurationSum="0.00" meanIntervalHaltingDuration="0.00" maxIntervalHaltingDuration="0.00" intervalHaltingDurationSum="0.00" startedHalts="0.00" meanVehicleNumber="1.14" maxVehicleNumber="6" />
   <interval begin="1500.00" end="1800.00" id="TLS0_actuated_delay_E2CollectorOn_2i_0" sampledSeconds="366.22" nVehEntered="23" nVehLeft="23" nVehSeen="24" meanSpeed="6.48" meanTimeLoss="9.24" meanOccupancy="5.85" maxOccupancy="15.00" meanMaxJamLengthInVehicles="0.00" meanMaxJamLengthInMeters="0.00" maxJamLengthInVehicles="0" maxJamLengthInMeters="0.00" jamLengthInVehiclesSum="0" jamLengthInMetersSum="0.00" meanHaltingDuration="0.00" maxHaltingDuration="0.00" haltingDurationSum="0.00" meanIntervalHaltingDuration="0.00" maxIntervalHaltingDuration="0.00" intervalHaltingDurationSum="0.00" startedHalts="0.00" meanVehicleNumber="1.29" maxVehicleNumber="4" />
   <interval begin="1500.00" end="1800.00" id="TLS0_actuated_delay_E2CollectorOn_3i_0" sampledSeconds="0.00" nVehEntered="0" nVehLeft="0" nVehSeen="0" meanSpeed="-1.00" meanTimeLoss="-1.00" meanOccupancy="0.00" maxOccupancy="0.00" meanMaxJamLengthInVehicles="0.00" meanMaxJamLengthInMeters="0.00" maxJamLengthInVehicles="0" maxJamLengthInMeters="0.00" jamLengthInVehiclesSum="0" jamLengthInMetersSum="0.00" meanHaltingDuration="0.00" maxHaltingDuration="0.00" haltingDurationSum="0.00" meanIntervalHaltingDuration="0.00" maxIntervalHaltingDuration="0.00" intervalHaltingDurationSum="0.00" startedHalts="0.00" meanVehicleNumber="0.00" maxVehicleNumber="0" />
   <interval begin="1500.00" end="1800.00" id="TLS0_actuated_delay_E2CollectorOn_1i_0" sampledSeconds="631.34" nVehEntered="27" nVehLeft="29" nVehSeen="29" meanSpeed="4.52" meanTimeLoss="15.80" meanOccupancy="10.16" maxOccupancy="30.00" meanMaxJamLengthInVehicles="0.00" meanMaxJamLengthInMeters="0.00" maxJamLengthInVehicles="0" maxJamLengthInMeters="0.00" jamLengthInVehiclesSum="0" jamLengthInMetersSum="0.00" meanHaltingDuration="0.00" maxHaltingDuration="0.00" haltingDurationSum="0.00" meanIntervalHaltingDuration="0.00" maxIntervalHaltingDuration="0.00" intervalHaltingDurationSum="0.00" startedHalts="0.00" meanVehicleNumber="2.20" maxVehicleNumber="7" />
    <interval begin="1800.00" end="2100.00" id="TLS0_actuated_gap_InductLoopOn_4i_0" nVehContrib="7" flow="84.00" occupancy="1.16" speed="14.42" harmonicMeanSpeed="14.03" length="7.00" nVehEntered="7"/>
    <interval begin="1800.00" end="2100.00" id="TLS0_actuated_gap_InductLoopOn_2i_0" nVehContrib="32" flow="384.00" occupancy="9.25" speed="8.89" harmonicMeanSpeed="5.76" length="5.00" nVehEntered="32"/>
    <interval begin="1800.00" end="2100.00" id="TLS0_actuated_gap_InductLoopOn_3i_0" nVehContrib="0" flow="0.00" occupancy="0.00" speed="-1.00" harmonicMeanSpeed="-1.00" length="-1.00" nVehEntered="0"/>
    <interval begin="1800.00" end="2100.00" id="TLS0_actuated_gap_InductLoopOn_1i_0" nVehContrib="35" flow="420.00" occupancy="8.31" speed="10.29" harmonicMeanSpeed="7.02" length="5.00" nVehEntered="35"/>
   <interval begin="1800.00" end="2100.00" id="TLS0_actuated_delay_E2CollectorOn_4i_0" sampledSeconds="154.03" nVehEntered="6" nVehLeft="8" nVehSeen="8" meanSpeed="4.47" meanTimeLoss="14.61" meanOccupancy="3.36" maxOccupancy="14.00" meanMaxJamLengthInVehicles="0.00" meanMaxJamLengthInMeters="0.00" maxJamLengthInVehicles="0" maxJamLengthInMeters="0.00" jamLengthInVehiclesSum="0" jamLengthInMetersSum="0.00" meanHaltingDuration="0.00" maxHaltingDuration="0.00" haltingDurationSum="0.00" meanIntervalHaltingDuration="0.00" maxIntervalHaltingDuration="0.00" intervalHaltingDurationSum="0.00" startedHalts="0.00" meanVehicleNumber="0.53" maxVehicleNumber="2" />
   <interval begin="1800.00" end="2100.00" id="TLS0_actuated_delay_E2CollectorOn_2i_0" sampledSeconds="719.98" nVehEntered="32" nVehLeft="31" nVehSeen="33" meanSpeed="4.63" meanTimeLoss="15.71" meanOccupancy="11.62" maxOccupancy="31.63" meanMaxJamLengthInVehicles="0.00" meanMaxJamLengthInMeters="0.00" maxJamLengthInVehicles="0" maxJamLengthInMeters="0.00" jamLengthInVehiclesSum="0" jamLengthInMetersSum="0.00" meanHaltingDuration="0.00" maxHaltingDuration="0.00" haltingDurationSum="0.00" meanIntervalHaltingDuration="0.00" maxIntervalHaltingDuration="0.00" intervalHaltingDurationSum="0.00" startedHalts="0.00" meanVehicleNumber="2.50" maxVehicleNumber="7" />
   <interval begin="1800.00" end="2100.00" id="TLS0_actuated_delay_E2CollectorOn_3i_0" sampledSeconds="0.00" nVehEntered="0" nVehLeft="0" nVehSeen="0" meanSpeed="-1.00" meanTimeLoss="-1.00" meanOccupancy="0.00" maxOccupancy="0.00" meanMaxJamLengthInVehicles="0.00" meanMaxJamLengthInMeters="0.00" maxJamLengthInVehicles="0" maxJamLengthInMeters="0.00" jamLengthInVehiclesSum="0" jamLengthInMetersSum="0.00" meanHaltingDuration="0.00" maxHaltingDuration="0.00" haltingDurationSum="0.00" meanIntervalHaltingDuration="0.00" maxIntervalHaltingDuration="0.00" intervalHaltingDurationSum="0.00" startedHalts="0.00" meanVehicleNumber="0.00" maxVehicleNumber="0" />
   <interval begin="1800.00" end="2100.00" id="TLS0_actuated_delay_E2CollectorOn_1i_0" sampledSeconds="737.69" nVehEntered="36" nVehLeft="34" nVehSeen="36" meanSpeed="5.04" meanTimeLoss="14.25" meanOccupancy="11.91" maxOccupancy="30.00" meanMaxJamLengthInVehicles="0.00" meanMaxJamLengthInMeters="0.00" maxJamLengthInVehicles="0" maxJamLengthInMeters="0.00" jamLengthInVehiclesSum="0" jamLengthInMetersSum="0.00" meanHaltingDuration="0.00" maxHaltingDuration="0.00" haltingDurationSum="0.00" meanIntervalHaltingDuration="0.00" maxIntervalHaltingDuration="0.00" intervalHaltingDurationSum="0.00" startedHalts="0.00" meanVehicleNumber="2.57" maxVehicleNumber="6" />
    <interval begin="2100.00" end="2400.00" id="TLS0_actuated_gap_InductLoopOn_4i_0" nVehContrib="8" flow="96.00" occupancy="1.48" speed="13.11" harmonicMeanSpeed="12.59" length="7.00" nVehEntered="8"/>
    <interval begin="2100.00" end="2400.00" id="TLS0_actuated_gap_InductLoopOn_2i_0" nVehContrib="30" flow="360.00" occupancy="9.04" speed="9.11" harmonicMeanSpeed="5.53" length="5.00" nVehEntered="30"/>
    <interval begin="2100.00" end="2400.00" id="TLS0_actuated_gap_InductLoopOn_3i_0" nVehContrib="0" flow="0.00" occupancy="0.00" speed="-1.00" harmonicMeanSpeed="-1.00" length="-1.00" nVehEntered="0"/>
    <interval begin="2100.00" end="2400.00" id="TLS0_actuated_gap_InductLoopOn_1i_0" nVehContrib="23" flow="276.00" occupancy="2.93" speed="14.09" harmonicMeanSpeed="13.10" length="5.00" nVehEntered="23"/>
   <interval begin="2100.00" end="2400.00" id="TLS0_actuated_delay_E2CollectorOn_4i_0" sampledSeconds="113.17" nVehEntered="8" nVehLeft="8" nVehSeen="8" meanSpeed="7.56" meanTimeLoss="8.18" meanOccupancy="2.44" maxOccupancy="21.00" meanMaxJamLengthInVehicles="0.00" meanMaxJamLengthInMeters="0.00" maxJamLengthInVehicles="0" maxJamLengthInMeters="0.00" jamLengthInVehiclesSum="0" jamLengthInMetersSum="0.00" meanHaltingDuration="0.00" maxHaltingDuration="0.00" haltingDurationSum="0.00" meanIntervalHaltingDuration="0.00" maxIntervalHaltingDuration="0.00" intervalHaltingDurationSum="0.00" startedHalts="0.00" meanVehicleNumber="0.40" maxVehicleNumber="3" />
   <interval begin="2100.00" end="2400.00" id="TLS0_actuated_delay_E2CollectorOn_2i_0" sampledSeconds="727.08" nVehEntered="29" nVehLeft="31" nVehSeen="31" meanSpeed="4.29" meanTimeLoss="17.30" meanOccupancy="11.80" maxOccupancy="35.00" meanMaxJamLengthInVehicles="0.00" meanMaxJamLengthInMeters="0.00" maxJamLengthInVehicles="0" maxJamLengthInMeters="0.00" jamLengthInVehiclesSum="0" jamLengthInMetersSum="0.00" meanHaltingDuration="0.00" maxHaltingDuration="0.00" haltingDurationSum="0.00" meanIntervalHaltingDuration="0.00" maxIntervalHaltingDuration="0.00" intervalHaltingDurationSum="0.00" startedHalts="0.00" meanVehicleNumber="2.53" maxVehicleNumber="8" />
   <interval begin="2100.00" end="2400.00" id="TLS0_actuated_delay_E2CollectorOn_3i_0" sampledSeconds="0.00" nVehEntered="0" nVehLeft="0" nVehSeen="0" meanSpeed="-1.00" meanTimeLoss="-1.00" meanOccupancy="0.00" maxOccupancy="0.00" meanMaxJamLengthInVehicles="0.00" meanMaxJamLengthInMeters="0.00" maxJamLengthInVehicles="0" maxJamLengthInMeters="0.00" jamLengthInVehiclesSum="0" jamLengthInMetersSum="0.00" meanHaltingDuration="0.00" maxHaltingDuration="0.00" haltingDurationSum="0.00" meanIntervalHaltingDuration="0.00" maxIntervalHaltingDuration="0.00" intervalHaltingDurationSum="0.00" startedHalts="0.00" meanVehicleNumber="0.00" maxVehicleNumber="0" />
   <interval begin="2100.00" end="2400.00" id="TLS0_actuated_delay_E2CollectorOn_1i_0" sampledSeconds="426.36" nVehEntered="22" nVehLeft="22" nVehSeen="24" meanSpeed="5.49" meanTimeLoss="11.86" meanOccupancy="6.85" maxOccupancy="20.00" meanMaxJamLengthInVehicles="0.00" meanMaxJamLengthInMeters="0.00" maxJamLengthInVehicles="0" maxJamLengthInMeters="0.00" jamLengthInVehiclesSum="0" jamLengthInMetersSum="0.00" meanHaltingDuration="0.00" maxHaltingDuration="0.00" haltingDurationSum="0.00" meanIntervalHaltingDuration="0.00" maxIntervalHaltingDuration="0.00" intervalHaltingDurationSum="0.00" startedHalts="0.00" meanVehicleNumber="1.49" maxVehicleNumber="4" />
    <interval begin="2400.00" end="2700.00" id="TLS0_actuated_gap_InductLoopOn_4i_0" nVehContrib="9" flow="108.00" occupancy="1.50" speed="14.91" harmonicMeanSpeed="13.97" length="7.00" nVehEntered="9"/>
    <interval begin="2400.00" end="2700.00" id="TLS0_actuated_gap_InductLoopOn_2i_0" nVehContrib="30" flow="360.00" occupancy="4.53" speed="12.34" harmonicMeanSpeed="11.05" length="5.00" nVehEntered="30"/>
    <interval begin="2400.00" end="2700.00" id="TLS0_actuated_gap_InductLoopOn_3i_0" nVehContrib="0" flow="0.00" occupancy="0.00" speed="-1.00" harmonicMeanSpeed="-1.00" length="-1.00" nVehEntered="0"/>
    <interval begin="2400.00" end="2700.00" id="TLS0_actuated_gap_InductLoopOn_1i_0" nVehContrib="31" flow="372.00" occupancy="7.03" speed="11.00" harmonicMeanSpeed="7.35" length="5.00" nVehEntered="31"/>