<?xml version="1.0" encoding="UTF-8"?>

<!-- generated on Sun Sep 15 17:46:23 2019 by Eclipse SUMO GUI Version 1.2.0
<configuration xmlns:xsi="http://www.w3.org/2001/XMLSchema-instance" xsi:noNamespaceSchemaLocation="http://sumo.dlr.de/xsd/sumoConfiguration.xsd">

    <input>
        <net-file value="data/cross.net.xml"/>
        <route-files value="data/cross.rou.xml"/>
        <additional-files value="data/cross.tlsp.xml"/>
    </input>

    <output>
        <tripinfo-output value="tripinfo_isolated.xml"/>
    </output>

    <time>
        <begin value="0"/>
    </time>

    <report>
        <verbose value="true"/>
        <no-step-log value="true"/>
    </report>

    <traci_server>
        <remote-port value="34541"/>
    </traci_server>

</configuration>
-->

<detector xmlns:xsi="http://www.w3.org/2001/XMLSchema-instance" xsi:noNamespaceSchemaLocation="http://sumo.dlr.de/xsd/det_e1_file.xsd">
    <interval begin="0.00" end="85.00" id="TLS0_actuated_gap_InductLoopOn_4i_0" nVehContrib="4" flow="169.41" occupancy="2.33" speed="14.52" harmonicMeanSpeed="14.40" length="7.00" nVehEntered="5"/>
    <interval begin="0.00" end="85.00" id="TLS0_actuated_gap_InductLoopOn_2i_0" nVehContrib="8" flow="338.82" occupancy="6.83" speed="10.95" harmonicMeanSpeed="6.89" length="5.00" nVehEntered="8"/>
    <interval begin="0.00" end="85.00" id="TLS0_actuated_gap_InductLoopOn_3i_0" nVehContrib="0" flow="0.00" occupancy="0.00" speed="-1.00" harmonicMeanSpeed="-1.00" length="-1.00" nVehEntered="0"/>
    <interval begin="0.00" end="85.00" id="TLS0_actuated_gap_InductLoopOn_1i_0" nVehContrib="5" flow="211.76" occupancy="2.15" speed="13.85" harmonicMeanSpeed="13.70" length="5.00" nVehEntered="5"/>
   <interval begin="0.00" end="85.00" id="TLS0_actuated_delay_E2CollectorOn_4i_0" sampledSeconds="52.34" nVehEntered="5" nVehLeft="3" nVehSeen="5" meanSpeed="9.40" meanTimeLoss="5.10" meanOccupancy="4.03" maxOccupancy="14.00" meanMaxJamLengthInVehicles="0.00" meanMaxJamLengthInMeters="0.00" maxJamLengthInVehicles="0" maxJamLengthInMeters="0.00" jamLengthInVehiclesSum="0" jamLengthInMetersSum="0.00" meanHaltingDuration="0.00" maxHaltingDuration="0.00" haltingDurationSum="0.00" meanIntervalHaltingDuration="0.00" maxIntervalHaltingDuration="0.00" intervalHaltingDurationSum="0.00" startedHalts="0.00" meanVehicleNumber="0.67" maxVehicleNumber="2" />
   <interval begin="0.00" end="85.00" id="TLS0_actuated_delay_E2CollectorOn_2i_0" sampledSeconds="131.79" nVehEntered="9" nVehLeft="4" nVehSeen="9" meanSpeed="6.35" meanTimeLoss="9.01" meanOccupancy="7.69" maxOccupancy="25.00" meanMaxJamLengthInVehicles="0.00" meanMaxJamLengthInMeters="0.00" maxJamLengthInVehicles="0" maxJamLengthInMeters="0.00" jamLengthInVehiclesSum="0" jamLengthInMetersSum="0.00" meanHaltingDuration="0.00" maxHaltingDuration="0.00" haltingDurationSum="0.00" meanIntervalHaltingDuration="0.00" maxIntervalHaltingDuration="0.00" intervalHaltingDurationSum="0.00" startedHalts="0.00" meanVehicleNumber="1.64" maxVehicleNumber="6" />
   <interval begin="0.00" end="85.00" id="TLS0_actuated_delay_E2CollectorOn_3i_0" sampledSeconds="0.00" nVehEntered="0" nVehLeft="0" nVehSeen="0" meanSpeed="-1.00" meanTimeLoss="-1.00" meanOccupancy="0.00" maxOccupancy="0.00" meanMaxJamLengthInVehicles="0.00" meanMaxJamLengthInMeters="0.00" maxJamLengthInVehicles="0" maxJamLengthInMeters="0.00" jamLengthInVehiclesSum="0" jamLengthInMetersSum="0.00" meanHaltingDuration="0.00" maxHaltingDuration="0.00" haltingDurationSum="0.00" meanIntervalHaltingDuration="0.00" maxIntervalHaltingDuration="0.00" intervalHaltingDurationSum="0.00" startedHalts="0.00" meanVehicleNumber="0.00" maxVehicleNumber="0" />
   <interval begin="0.00" end="85.00" id="TLS0_actuated_delay_E2CollectorOn_1i_0" sampledSeconds="73.68" nVehEntered="5" nVehLeft="3" nVehSeen="5" meanSpeed="6.70" meanTimeLoss="8.77" meanOccupancy="4.20" maxOccupancy="10.00" meanMaxJamLengthInVehicles="0.00" meanMaxJamLengthInMeters="0.00" maxJamLengthInVehicles="0" maxJamLengthInMeters="0.00" jamLengthInVehiclesSum="0" jamLengthInMetersSum="0.00" meanHaltingDuration="0.00" maxHaltingDuration="0.00" haltingDurationSum="0.00" meanIntervalHaltingDuration="0.00" maxIntervalHaltingDuration="0.00" intervalHaltingDurationSum="0.00" startedHalts="0.00" meanVehicleNumber="0.93" maxVehicleNumber="2" />
</detector>
