<?xml version="1.0" encoding="UTF-8"?>

<!-- generated on Sat Nov  9 04:10:59 2019 by Eclipse SUMO GUI Version 1.2.0
<configuration xmlns:xsi="http://www.w3.org/2001/XMLSchema-instance" xsi:noNamespaceSchemaLocation="http://sumo.dlr.de/xsd/sumoConfiguration.xsd">

    <input>
        <net-file value="simulation_files/sumocfgs/../networks/isolated_3_lanes_4_stages.net.xml"/>
        <route-files value="simulation_files/sumocfgs/../routes/isolated_3_lanes_varying_exp22.rou.xml"/>
    </input>

    <output>
        <tripinfo-output value="./output/dummy/adapt_veh_n_thp_-0.2_0_tripinfo_isolated.xml"/>
    </output>

    <time>
        <begin value="0"/>
        <step-length value="1"/>
    </time>

    <report>
        <verbose value="true"/>
        <no-step-log value="true"/>
    </report>

    <gui_only>
        <tracker-interval value="1"/>
    </gui_only>

</configuration>
-->

<tripinfos xmlns:xsi="http://www.w3.org/2001/XMLSchema-instance" xsi:noNamespaceSchemaLocation="http://sumo.dlr.de/xsd/tripinfo_file.xsd">
    <tripinfo id="1_0" depart="0.00" departLane="54o_0" departPos="5.10" departSpeed="0.00" departDelay="0.00" arrival="39.00" arrivalLane="51i_0" arrivalPos="10.00" arrivalSpeed="19.76" duration="39.00" routeLength="596.93" waitingTime="0.00" waitingCount="0" stopTime="0.00" timeLoss="9.30" rerouteNo="0" devices="tripinfo_1_0" vType="DEFAULT_VEHTYPE" speedFactor="1.06" vaporized=""/>
    <tripinfo id="1_2" depart="14.00" departLane="52o_0" departPos="5.10" departSpeed="0.00" departDelay="-0.28" arrival="55.00" arrivalLane="53i_0" arrivalPos="10.00" arrivalSpeed="18.41" duration="41.00" routeLength="617.75" waitingTime="0.00" waitingCount="0" stopTime="0.00" timeLoss="8.15" rerouteNo="0" devices="tripinfo_1_2" vType="DEFAULT_VEHTYPE" speedFactor="1.01" vaporized=""/>
    <tripinfo id="1_8" depart="57.00" departLane="52o_0" departPos="5.10" departSpeed="0.00" departDelay="-0.12" arrival="97.00" arrivalLane="51i_0" arrivalPos="10.00" arrivalSpeed="17.21" duration="40.00" routeLength="615.10" waitingTime="0.00" waitingCount="0" stopTime="0.00" timeLoss="5.50" rerouteNo="0" devices="tripinfo_1_8" vType="DEFAULT_VEHTYPE" speedFactor="0.94" vaporized=""/>
    <tripinfo id="1_3" depart="21.00" departLane="53o_0" departPos="5.10" departSpeed="0.00" departDelay="-0.42" arrival="111.00" arrivalLane="52i_0" arrivalPos="10.00" arrivalSpeed="19.82" duration="90.00" routeLength="596.93" waitingTime="47.00" waitingCount="1" stopTime="0.00" timeLoss="60.48" rerouteNo="0" devices="tripinfo_1_3" vType="DEFAULT_VEHTYPE" speedFactor="1.08" vaporized=""/>
    <tripinfo id="1_12" depart="85.00" departLane="53o_0" departPos="5.10" departSpeed="0.00" departDelay="-0.68" arrival="121.00" arrivalLane="54i_0" arrivalPos="10.00" arrivalSpeed="19.85" duration="36.00" routeLength="615.10" waitingTime="0.00" waitingCount="0" stopTime="0.00" timeLoss="5.04" rerouteNo="0" devices="tripinfo_1_12" vType="DEFAULT_VEHTYPE" speedFactor="1.05" vaporized=""/>
    <tripinfo id="1_19" depart="135.00" departLane="53o_0" departPos="5.10" departSpeed="0.00" departDelay="-0.66" arrival="173.00" arrivalLane="52i_0" arrivalPos="10.00" arrivalSpeed="21.28" duration="38.00" routeLength="596.93" waitingTime="0.00" waitingCount="0" stopTime="0.00" timeLoss="10.48" rerouteNo="0" devices="tripinfo_1_19" vType="DEFAULT_VEHTYPE" speedFactor="1.16" vaporized=""/>
    <tripinfo id="1_20" depart="142.00" departLane="53o_0" departPos="5.10" departSpeed="0.00" departDelay="-0.80" arrival="183.00" arrivalLane="52i_0" arrivalPos="10.00" arrivalSpeed="18.93" duration="41.00" routeLength="596.93" waitingTime="0.00" waitingCount="0" stopTime="0.00" timeLoss="9.90" rerouteNo="0" devices="tripinfo_1_20" vType="DEFAULT_VEHTYPE" speedFactor="1.02" vaporized=""/>
    <tripinfo id="1_6" depart="42.00" departLane="51o_0" departPos="5.10" departSpeed="0.00" departDelay="-0.84" arrival="195.00" arrivalLane="54i_0" arrivalPos="10.00" arrivalSpeed="19.68" duration="153.00" routeLength="617.75" waitingTime="107.00" waitingCount="1" stopTime="0.00" timeLoss="121.41" rerouteNo="0" devices="tripinfo_1_6" vType="DEFAULT_VEHTYPE" speedFactor="1.05" vaporized=""/>
    <tripinfo id="1_18" depart="128.00" departLane="51o_0" departPos="5.10" departSpeed="0.00" departDelay="-0.52" arrival="196.00" arrivalLane="52i_1" arrivalPos="10.00" arrivalSpeed="18.15" duration="68.00" routeLength="615.10" waitingTime="20.00" waitingCount="1" stopTime="0.00" timeLoss="33.62" rerouteNo="0" devices="tripinfo_1_18" vType="DEFAULT_VEHTYPE" speedFactor="0.94" vaporized=""/>
    <tripinfo id="1_7" depart="49.00" departLane="51o_0" departPos="5.10" departSpeed="0.00" departDelay="-0.98" arrival="197.00" arrivalLane="52i_0" arrivalPos="10.00" arrivalSpeed="16.12" duration="148.00" routeLength="615.10" waitingTime="99.00" waitingCount="1" stopTime="0.00" timeLoss="111.63" rerouteNo="0" devices="tripinfo_1_7" vType="DEFAULT_VEHTYPE" speedFactor="0.89" vaporized=""/>
    <tripinfo id="1_10" depart="71.00" departLane="51o_0" departPos="5.10" departSpeed="0.00" departDelay="-0.40" arrival="198.00" arrivalLane="54i_0" arrivalPos="10.00" arrivalSpeed="20.22" duration="127.00" routeLength="617.75" waitingTime="82.00" waitingCount="1" stopTime="0.00" timeLoss="96.54" rerouteNo="0" devices="tripinfo_1_10" vType="DEFAULT_VEHTYPE" speedFactor="1.09" vaporized=""/>
    <tripinfo id="1_1" depart="7.00" departLane="54o_0" departPos="5.10" departSpeed="0.00" departDelay="-0.14" arrival="213.00" arrivalLane="53i_0" arrivalPos="10.00" arrivalSpeed="17.63" duration="206.00" routeLength="615.10" waitingTime="158.00" waitingCount="1" stopTime="0.00" timeLoss="171.72" rerouteNo="0" devices="tripinfo_1_1" vType="DEFAULT_VEHTYPE" speedFactor="0.94" vaporized=""/>
    <tripinfo id="1_4" depart="28.00" departLane="54o_0" departPos="5.10" departSpeed="0.00" departDelay="-0.56" arrival="213.00" arrivalLane="51i_0" arrivalPos="10.00" arrivalSpeed="19.81" duration="185.00" routeLength="596.93" waitingTime="141.00" waitingCount="1" stopTime="0.00" timeLoss="153.86" rerouteNo="0" devices="tripinfo_1_4" vType="DEFAULT_VEHTYPE" speedFactor="1.03" vaporized=""/>
    <tripinfo id="1_9" depart="64.00" departLane="54o_0" departPos="5.10" departSpeed="0.00" departDelay="-0.26" arrival="214.00" arrivalLane="53i_1" arrivalPos="10.00" arrivalSpeed="16.29" duration="150.00" routeLength="615.10" waitingTime="101.00" waitingCount="1" stopTime="0.00" timeLoss="112.96" rerouteNo="0" devices="tripinfo_1_9" vType="DEFAULT_VEHTYPE" speedFactor="0.86" vaporized=""/>
    <tripinfo id="1_5" depart="35.00" departLane="54o_0" departPos="5.10" departSpeed="0.00" departDelay="-0.70" arrival="216.00" arrivalLane="52i_0" arrivalPos="10.00" arrivalSpeed="15.61" duration="181.00" routeLength="617.75" waitingTime="130.00" waitingCount="1" stopTime="0.00" timeLoss="141.03" rerouteNo="0" devices="tripinfo_1_5" vType="DEFAULT_VEHTYPE" speedFactor="0.83" vaporized=""/>
    <tripinfo id="1_16" depart="114.00" departLane="54o_0" departPos="5.10" departSpeed="0.00" departDelay="-0.24" arrival="217.00" arrivalLane="52i_1" arrivalPos="10.00" arrivalSpeed="16.57" duration="103.00" routeLength="617.75" waitingTime="53.00" waitingCount="1" stopTime="0.00" timeLoss="65.49" rerouteNo="0" devices="tripinfo_1_16" vType="DEFAULT_VEHTYPE" speedFactor="0.88" vaporized=""/>
    <tripinfo id="1_17" depart="121.00" departLane="54o_0" departPos="5.10" departSpeed="0.00" departDelay="-0.38" arrival="219.00" arrivalLane="52i_0" arrivalPos="10.00" arrivalSpeed="17.52" duration="98.00" routeLength="617.75" waitingTime="48.00" waitingCount="1" stopTime="0.00" timeLoss="62.28" rerouteNo="0" devices="tripinfo_1_17" vType="DEFAULT_VEHTYPE" speedFactor="0.94" vaporized=""/>
    <tripinfo id="1_11" depart="78.00" departLane="52o_0" departPos="5.10" departSpeed="0.00" departDelay="-0.54" arrival="222.00" arrivalLane="54i_0" arrivalPos="10.00" arrivalSpeed="19.70" duration="144.00" routeLength="596.93" waitingTime="99.00" waitingCount="1" stopTime="0.00" timeLoss="112.96" rerouteNo="0" devices="tripinfo_1_11" vType="DEFAULT_VEHTYPE" speedFactor="1.03" vaporized=""/>
    <tripinfo id="1_13" depart="92.00" departLane="52o_0" departPos="5.10" departSpeed="0.00" departDelay="-0.82" arrival="222.00" arrivalLane="51i_1" arrivalPos="10.00" arrivalSpeed="20.96" duration="130.00" routeLength="615.10" waitingTime="88.00" waitingCount="1" stopTime="0.00" timeLoss="100.89" rerouteNo="0" devices="tripinfo_1_13" vType="DEFAULT_VEHTYPE" speedFactor="1.12" vaporized=""/>
    <tripinfo id="1_14" depart="99.00" departLane="52o_0" departPos="5.10" departSpeed="0.00" departDelay="-0.96" arrival="223.00" arrivalLane="51i_1" arrivalPos="10.00" arrivalSpeed="18.40" duration="124.00" routeLength="615.10" waitingTime="80.00" waitingCount="1" stopTime="0.00" timeLoss="92.04" rerouteNo="0" devices="tripinfo_1_14" vType="DEFAULT_VEHTYPE" speedFactor="0.99" vaporized=""/>
    <tripinfo id="1_21" depart="149.00" departLane="52o_0" departPos="5.10" departSpeed="0.00" departDelay="-0.94" arrival="225.00" arrivalLane="54i_0" arrivalPos="10.00" arrivalSpeed="18.85" duration="76.00" routeLength="596.93" waitingTime="30.00" waitingCount="1" stopTime="0.00" timeLoss="44.35" rerouteNo="0" devices="tripinfo_1_21" vType="DEFAULT_VEHTYPE" speedFactor="1.01" vaporized=""/>
    <tripinfo id="1_15" depart="107.00" departLane="52o_0" departPos="5.10" departSpeed="0.00" departDelay="-0.10" arrival="226.00" arrivalLane="51i_2" arrivalPos="10.00" arrivalSpeed="17.05" duration="119.00" routeLength="615.10" waitingTime="72.00" waitingCount="1" stopTime="0.00" timeLoss="84.83" rerouteNo="0" devices="tripinfo_1_15" vType="DEFAULT_VEHTYPE" speedFactor="0.93" vaporized=""/>
    <tripinfo id="1_22" depart="157.00" departLane="52o_0" departPos="5.10" departSpeed="0.00" departDelay="-0.08" arrival="228.00" arrivalLane="54i_0" arrivalPos="10.00" arrivalSpeed="18.62" duration="71.00" routeLength="596.93" waitingTime="23.00" waitingCount="1" stopTime="0.00" timeLoss="38.04" rerouteNo="0" devices="tripinfo_1_22" vType="DEFAULT_VEHTYPE" speedFactor="0.98" vaporized=""/>
    <tripinfo id="1_38" depart="271.00" departLane="52o_0" departPos="5.10" departSpeed="0.00" departDelay="-0.32" arrival="311.00" arrivalLane="53i_0" arrivalPos="10.00" arrivalSpeed="20.99" duration="40.00" routeLength="617.75" waitingTime="0.00" waitingCount="0" stopTime="0.00" timeLoss="9.84" rerouteNo="0" devices="tripinfo_1_38" vType="DEFAULT_VEHTYPE" speedFactor="1.10" vaporized=""/>
    <tripinfo id="1_39" depart="278.00" departLane="52o_0" departPos="5.10" departSpeed="0.00" departDelay="-0.46" arrival="323.00" arrivalLane="54i_0" arrivalPos="10.00" arrivalSpeed="16.34" duration="45.00" routeLength="596.93" waitingTime="0.00" waitingCount="0" stopTime="0.00" timeLoss="9.37" rerouteNo="0" devices="tripinfo_1_39" vType="DEFAULT_VEHTYPE" speedFactor="0.90" vaporized=""/>
    <tripinfo id="1_26" depart="185.00" departLane="53o_0" departPos="5.10" departSpeed="0.00" departDelay="-0.64" arrival="337.00" arrivalLane="54i_0" arrivalPos="10.00" arrivalSpeed="17.36" duration="152.00" routeLength="615.10" waitingTime="106.00" waitingCount="1" stopTime="0.00" timeLoss="117.35" rerouteNo="0" devices="tripinfo_1_26" vType="DEFAULT_VEHTYPE" speedFactor="0.92" vaporized=""/>
    <tripinfo id="1_25" depart="178.00" departLane="53o_0" departPos="5.10" departSpeed="0.00" departDelay="-0.50" arrival="339.00" arrivalLane="51i_0" arrivalPos="10.00" arrivalSpeed="15.98" duration="161.00" routeLength="617.75" waitingTime="113.00" waitingCount="1" stopTime="0.00" timeLoss="122.96" rerouteNo="0" devices="tripinfo_1_25" vType="DEFAULT_VEHTYPE" speedFactor="0.87" vaporized=""/>
    <tripinfo id="1_28" depart="199.00" departLane="53o_0" departPos="5.10" departSpeed="0.00" departDelay="-0.92" arrival="340.00" arrivalLane="51i_0" arrivalPos="10.00" arrivalSpeed="17.32" duration="141.00" routeLength="617.75" waitingTime="93.00" waitingCount="1" stopTime="0.00" timeLoss="112.01" rerouteNo="0" devices="tripinfo_1_28" vType="DEFAULT_VEHTYPE" speedFactor="1.13" vaporized=""/>
    <tripinfo id="1_44" depart="314.00" departLane="53o_0" departPos="5.10" departSpeed="0.00" departDelay="-0.16" arrival="350.00" arrivalLane="54i_0" arrivalPos="10.00" arrivalSpeed="19.84" duration="36.00" routeLength="615.10" waitingTime="0.00" waitingCount="0" stopTime="0.00" timeLoss="5.42" rerouteNo="0" devices="tripinfo_1_44" vType="DEFAULT_VEHTYPE" speedFactor="1.04" vaporized=""/>
    <tripinfo id="1_47" depart="335.00" departLane="53o_0" departPos="5.10" departSpeed="0.00" departDelay="-0.58" arrival="379.00" arrivalLane="52i_0" arrivalPos="10.00" arrivalSpeed="16.60" duration="44.00" routeLength="596.93" waitingTime="0.00" waitingCount="0" stopTime="0.00" timeLoss="8.88" rerouteNo="0" devices="tripinfo_1_47" vType="DEFAULT_VEHTYPE" speedFactor="0.90" vaporized=""/>
    <tripinfo id="1_49" depart="349.00" departLane="53o_0" departPos="5.10" departSpeed="0.00" departDelay="-0.86" arrival="395.00" arrivalLane="51i_0" arrivalPos="10.00" arrivalSpeed="15.44" duration="46.00" routeLength="617.75" waitingTime="0.00" waitingCount="0" stopTime="0.00" timeLoss="7.39" rerouteNo="0" devices="tripinfo_1_49" vType="DEFAULT_VEHTYPE" speedFactor="0.85" vaporized=""/>
    <tripinfo id="1_52" depart="371.00" departLane="53o_0" departPos="5.10" departSpeed="0.00" departDelay="-0.28" arrival="408.00" arrivalLane="54i_0" arrivalPos="10.00" arrivalSpeed="19.71" duration="37.00" routeLength="615.10" waitingTime="0.00" waitingCount="0" stopTime="0.00" timeLoss="5.74" rerouteNo="0" devices="tripinfo_1_52" vType="DEFAULT_VEHTYPE" speedFactor="1.02" vaporized=""/>
    <tripinfo id="1_53" depart="378.00" departLane="53o_0" departPos="5.10" departSpeed="0.00" departDelay="-0.42" arrival="415.00" arrivalLane="52i_0" arrivalPos="10.00" arrivalSpeed="21.22" duration="37.00" routeLength="596.93" waitingTime="0.00" waitingCount="0" stopTime="0.00" timeLoss="8.32" rerouteNo="0" devices="tripinfo_1_53" vType="DEFAULT_VEHTYPE" speedFactor="1.10" vaporized=""/>
    <tripinfo id="1_27" depart="192.00" departLane="51o_0" departPos="5.10" departSpeed="0.00" departDelay="-0.78" arrival="437.00" arrivalLane="52i_1" arrivalPos="10.00" arrivalSpeed="18.09" duration="245.00" routeLength="615.10" waitingTime="199.00" waitingCount="1" stopTime="0.00" timeLoss="211.54" rerouteNo="0" devices="tripinfo_1_27" vType="DEFAULT_VEHTYPE" speedFactor="0.95" vaporized=""/>
    <tripinfo id="1_34" depart="242.00" departLane="51o_0" departPos="5.10" departSpeed="0.00" departDelay="-0.76" arrival="438.00" arrivalLane="54i_0" arrivalPos="10.00" arrivalSpeed="19.01" duration="196.00" routeLength="617.75" waitingTime="151.00" waitingCount="1" stopTime="0.00" timeLoss="162.80" rerouteNo="0" devices="tripinfo_1_34" vType="DEFAULT_VEHTYPE" speedFactor="0.99" vaporized=""/>
    <tripinfo id="1_24" depart="171.00" departLane="51o_0" departPos="5.10" departSpeed="0.00" departDelay="-0.36" arrival="439.00" arrivalLane="53i_0" arrivalPos="10.00" arrivalSpeed="14.82" duration="268.00" routeLength="596.93" waitingTime="219.00" waitingCount="1" stopTime="0.00" timeLoss="229.93" rerouteNo="0" devices="tripinfo_1_24" vType="DEFAULT_VEHTYPE" speedFactor="0.83" vaporized=""/>
    <tripinfo id="1_43" depart="307.00" departLane="51o_0" departPos="5.10" departSpeed="0.00" departDelay="-0.02" arrival="439.00" arrivalLane="52i_1" arrivalPos="10.00" arrivalSpeed="20.10" duration="132.00" routeLength="615.10" waitingTime="82.00" waitingCount="2" stopTime="0.00" timeLoss="100.81" rerouteNo="0" devices="tripinfo_1_43" vType="DEFAULT_VEHTYPE" speedFactor="1.04" vaporized=""/>
    <tripinfo id="1_29" depart="207.00" departLane="51o_0" departPos="5.10" departSpeed="0.00" departDelay="-0.06" arrival="441.00" arrivalLane="53i_0" arrivalPos="10.00" arrivalSpeed="17.35" duration="234.00" routeLength="596.93" waitingTime="185.00" waitingCount="1" stopTime="0.00" timeLoss="199.24" rerouteNo="0" devices="tripinfo_1_29" vType="DEFAULT_VEHTYPE" speedFactor="0.93" vaporized=""/>
    <tripinfo id="1_36" depart="257.00" departLane="51o_0" departPos="5.10" departSpeed="0.00" departDelay="-0.04" arrival="441.00" arrivalLane="54i_0" arrivalPos="10.00" arrivalSpeed="17.92" duration="184.00" routeLength="617.75" waitingTime="136.00" waitingCount="1" stopTime="0.00" timeLoss="150.17" rerouteNo="0" devices="tripinfo_1_36" vType="DEFAULT_VEHTYPE" speedFactor="0.97" vaporized=""/>
    <tripinfo id="1_32" depart="228.00" departLane="51o_0" departPos="5.10" departSpeed="0.00" departDelay="-0.48" arrival="443.00" arrivalLane="53i_0" arrivalPos="10.00" arrivalSpeed="19.49" duration="215.00" routeLength="596.93" waitingTime="167.00" waitingCount="1" stopTime="0.00" timeLoss="182.44" rerouteNo="0" devices="tripinfo_1_32" vType="DEFAULT_VEHTYPE" speedFactor="1.01" vaporized=""/>
    <tripinfo id="1_37" depart="264.00" departLane="51o_0" departPos="5.10" departSpeed="0.00" departDelay="-0.18" arrival="444.00" arrivalLane="53i_0" arrivalPos="10.00" arrivalSpeed="20.54" duration="180.00" routeLength="596.93" waitingTime="133.00" waitingCount="1" stopTime="0.00" timeLoss="153.16" rerouteNo="0" devices="tripinfo_1_37" vType="DEFAULT_VEHTYPE" speedFactor="1.18" vaporized=""/>
    <tripinfo id="1_46" depart="328.00" departLane="51o_0" departPos="5.10" departSpeed="0.00" departDelay="-0.44" arrival="447.00" arrivalLane="53i_0" arrivalPos="10.00" arrivalSpeed="18.21" duration="119.00" routeLength="596.93" waitingTime="69.00" waitingCount="1" stopTime="0.00" timeLoss="86.56" rerouteNo="0" devices="tripinfo_1_46" vType="DEFAULT_VEHTYPE" speedFactor="1.00" vaporized=""/>
    <tripinfo id="1_48" depart="342.00" departLane="51o_0" departPos="5.10" departSpeed="0.00" departDelay="-0.72" arrival="452.00" arrivalLane="53i_0" arrivalPos="10.00" arrivalSpeed="16.09" duration="110.00" routeLength="596.93" waitingTime="57.00" waitingCount="1" stopTime="0.00" timeLoss="73.33" rerouteNo="0" devices="tripinfo_1_48" vType="DEFAULT_VEHTYPE" speedFactor="0.88" vaporized=""/>
    <tripinfo id="1_54" depart="385.00" departLane="51o_0" departPos="5.10" departSpeed="0.00" departDelay="-0.56" arrival="453.00" arrivalLane="53i_0" arrivalPos="10.00" arrivalSpeed="18.95" duration="68.00" routeLength="596.93" waitingTime="15.00" waitingCount="1" stopTime="0.00" timeLoss="36.36" rerouteNo="0" devices="tripinfo_1_54" vType="DEFAULT_VEHTYPE" speedFactor="1.00" vaporized=""/>
    <tripinfo id="1_60" depart="428.00" departLane="51o_0" departPos="5.10" departSpeed="0.00" departDelay="-0.40" arrival="464.00" arrivalLane="52i_0" arrivalPos="10.00" arrivalSpeed="20.99" duration="36.00" routeLength="615.10" waitingTime="0.00" waitingCount="0" stopTime="0.00" timeLoss="5.81" rerouteNo="0" devices="tripinfo_1_60" vType="DEFAULT_VEHTYPE" speedFactor="1.08" vaporized=""/>
    <tripinfo id="1_61" depart="435.00" departLane="51o_0" departPos="5.10" departSpeed="0.00" departDelay="-0.54" arrival="474.00" arrivalLane="53i_0" arrivalPos="10.00" arrivalSpeed="21.33" duration="39.00" routeLength="596.93" waitingTime="0.00" waitingCount="0" stopTime="0.00" timeLoss="9.97" rerouteNo="0" devices="tripinfo_1_61" vType="DEFAULT_VEHTYPE" speedFactor="1.12" vaporized=""/>
    <tripinfo id="1_63" depart="449.00" departLane="51o_0" departPos="5.10" departSpeed="0.00" departDelay="-0.82" arrival="490.00" arrivalLane="53i_0" arrivalPos="10.00" arrivalSpeed="17.90" duration="41.00" routeLength="596.93" waitingTime="0.00" waitingCount="0" stopTime="0.00" timeLoss="9.12" rerouteNo="0" devices="tripinfo_1_63" vType="DEFAULT_VEHTYPE" speedFactor="0.99" vaporized=""/>
    <tripinfo id="1_64" depart="456.00" departLane="51o_0" departPos="5.10" departSpeed="0.00" departDelay="-0.96" arrival="500.00" arrivalLane="54i_0" arrivalPos="10.00" arrivalSpeed="17.46" duration="44.00" routeLength="617.75" waitingTime="0.00" waitingCount="0" stopTime="0.00" timeLoss="8.76" rerouteNo="0" devices="tripinfo_1_64" vType="DEFAULT_VEHTYPE" speedFactor="0.94" vaporized=""/>
    <tripinfo id="1_23" depart="164.00" departLane="54o_0" departPos="5.10" departSpeed="0.00" departDelay="-0.22" arrival="519.00" arrivalLane="52i_1" arrivalPos="10.00" arrivalSpeed="16.69" duration="355.00" routeLength="617.75" waitingTime="307.00" waitingCount="2" stopTime="0.00" timeLoss="320.75" rerouteNo="0" devices="tripinfo_1_23" vType="DEFAULT_VEHTYPE" speedFactor="0.89" vaporized=""/>
    <tripinfo id="1_67" depart="478.00" departLane="51o_0" departPos="5.10" departSpeed="0.00" departDelay="-0.38" arrival="519.00" arrivalLane="52i_0" arrivalPos="10.00" arrivalSpeed="16.73" duration="41.00" routeLength="615.10" waitingTime="0.00" waitingCount="0" stopTime="0.00" timeLoss="5.69" rerouteNo="0" devices="tripinfo_1_67" vType="DEFAULT_VEHTYPE" speedFactor="0.91" vaporized=""/>
    <tripinfo id="1_30" depart="214.00" departLane="54o_0" departPos="5.10" departSpeed="0.00" departDelay="-0.20" arrival="540.00" arrivalLane="52i_0" arrivalPos="10.00" arrivalSpeed="22.10" duration="326.00" routeLength="617.75" waitingTime="278.00" waitingCount="2" stopTime="0.00" timeLoss="297.59" rerouteNo="0" devices="tripinfo_1_30" vType="DEFAULT_VEHTYPE" speedFactor="1.18" vaporized=""/>
    <tripinfo id="1_31" depart="221.00" departLane="54o_0" departPos="5.10" departSpeed="0.00" departDelay="-0.34" arrival="540.00" arrivalLane="53i_0" arrivalPos="10.00" arrivalSpeed="22.01" duration="319.00" routeLength="615.10" waitingTime="276.00" waitingCount="1" stopTime="0.00" timeLoss="290.75" rerouteNo="0" devices="tripinfo_1_31" vType="DEFAULT_VEHTYPE" speedFactor="1.15" vaporized=""/>
    <tripinfo id="1_33" depart="235.00" departLane="54o_0" departPos="5.10" departSpeed="0.00" departDelay="-0.62" arrival="540.00" arrivalLane="53i_1" arrivalPos="10.00" arrivalSpeed="22.32" duration="305.00" routeLength="615.10" waitingTime="263.00" waitingCount="1" stopTime="0.00" timeLoss="277.33" rerouteNo="0" devices="tripinfo_1_33" vType="DEFAULT_VEHTYPE" speedFactor="1.17" vaporized=""/>
    <tripinfo id="1_35" depart="249.00" departLane="54o_0" departPos="5.10" departSpeed="0.00" departDelay="-0.90" arrival="542.00" arrivalLane="51i_0" arrivalPos="10.00" arrivalSpeed="19.18" duration="293.00" routeLength="596.93" waitingTime="248.00" waitingCount="1" stopTime="0.00" timeLoss="261.47" rerouteNo="0" devices="tripinfo_1_35" vType="DEFAULT_VEHTYPE" speedFactor="1.02" vaporized=""/>
    <tripinfo id="1_40" depart="285.00" departLane="54o_0" departPos="5.10" departSpeed="0.00" departDelay="-0.60" arrival="544.00" arrivalLane="53i_1" arrivalPos="10.00" arrivalSpeed="17.93" duration="259.00" routeLength="615.10" waitingTime="210.00" waitingCount="2" stopTime="0.00" timeLoss="227.78" rerouteNo="0" devices="tripinfo_1_40" vType="DEFAULT_VEHTYPE" speedFactor="1.03" vaporized=""/>
    <tripinfo id="1_41" depart="292.00" departLane="54o_0" departPos="5.10" departSpeed="0.00" departDelay="-0.74" arrival="544.00" arrivalLane="53i_2" arrivalPos="10.00" arrivalSpeed="18.37" duration="252.00" routeLength="615.10" waitingTime="202.00" waitingCount="2" stopTime="0.00" timeLoss="218.04" rerouteNo="0" devices="tripinfo_1_41" vType="DEFAULT_VEHTYPE" speedFactor="0.96" vaporized=""/>
    <tripinfo id="1_45" depart="321.00" departLane="54o_0" departPos="5.10" departSpeed="0.00" departDelay="-0.30" arrival="544.00" arrivalLane="51i_0" arrivalPos="10.00" arrivalSpeed="20.12" duration="223.00" routeLength="596.93" waitingTime="178.00" waitingCount="1" stopTime="0.00" timeLoss="193.66" rerouteNo="0" devices="tripinfo_1_45" vType="DEFAULT_VEHTYPE" speedFactor="1.09" vaporized=""/>
    <tripinfo id="1_42" depart="299.00" departLane="54o_0" departPos="5.10" departSpeed="0.00" departDelay="-0.88" arrival="546.00" arrivalLane="52i_0" arrivalPos="10.00" arrivalSpeed="20.96" duration="247.00" routeLength="617.75" waitingTime="194.00" waitingCount="2" stopTime="0.00" timeLoss="216.08" rerouteNo="0" devices="tripinfo_1_42" vType="DEFAULT_VEHTYPE" speedFactor="1.09" vaporized=""/>
    <tripinfo id="1_50" depart="357.00" departLane="54o_0" departPos="5.10" departSpeed="0.00" departDelay="0.00" arrival="547.00" arrivalLane="53i_1" arrivalPos="10.00" arrivalSpeed="15.72" duration="190.00" routeLength="615.10" waitingTime="140.00" waitingCount="1" stopTime="0.00" timeLoss="152.90" rerouteNo="0" devices="tripinfo_1_50" vType="DEFAULT_VEHTYPE" speedFactor="0.85" vaporized=""/>
    <tripinfo id="1_62" depart="442.00" departLane="54o_0" departPos="5.10" departSpeed="0.00" departDelay="-0.68" arrival="547.00" arrivalLane="53i_2" arrivalPos="10.00" arrivalSpeed="19.13" duration="105.00" routeLength="615.10" waitingTime="52.00" waitingCount="2" stopTime="0.00" timeLoss="73.48" rerouteNo="0" devices="tripinfo_1_62" vType="DEFAULT_VEHTYPE" speedFactor="1.02" vaporized=""/>
    <tripinfo id="1_55" depart="392.00" departLane="54o_0" departPos="5.10" departSpeed="0.00" departDelay="-0.70" arrival="548.00" arrivalLane="51i_0" arrivalPos="10.00" arrivalSpeed="19.12" duration="156.00" routeLength="596.93" waitingTime="108.00" waitingCount="1" stopTime="0.00" timeLoss="123.88" rerouteNo="0" devices="tripinfo_1_55" vType="DEFAULT_VEHTYPE" speedFactor="1.00" vaporized=""/>
    <tripinfo id="1_51" depart="364.00" departLane="54o_0" departPos="5.10" departSpeed="0.00" departDelay="-0.14" arrival="549.00" arrivalLane="53i_1" arrivalPos="10.00" arrivalSpeed="18.72" duration="185.00" routeLength="615.10" waitingTime="134.00" waitingCount="2" stopTime="0.00" timeLoss="157.38" rerouteNo="0" devices="tripinfo_1_51" vType="DEFAULT_VEHTYPE" speedFactor="1.17" vaporized=""/>
    <tripinfo id="1_68" depart="485.00" departLane="54o_0" departPos="5.10" departSpeed="0.00" departDelay="-0.52" arrival="550.00" arrivalLane="51i_0" arrivalPos="10.00" arrivalSpeed="19.83" duration="65.00" routeLength="596.93" waitingTime="18.00" waitingCount="1" stopTime="0.00" timeLoss="34.24" rerouteNo="0" devices="tripinfo_1_68" vType="DEFAULT_VEHTYPE" speedFactor="1.04" vaporized=""/>
    <tripinfo id="1_69" depart="492.00" departLane="54o_0" departPos="5.10" departSpeed="0.00" departDelay="-0.66" arrival="553.00" arrivalLane="51i_0" arrivalPos="10.00" arrivalSpeed="18.78" duration="61.00" routeLength="596.93" waitingTime="12.00" waitingCount="1" stopTime="0.00" timeLoss="29.61" rerouteNo="0" devices="tripinfo_1_69" vType="DEFAULT_VEHTYPE" speedFactor="1.02" vaporized=""/>
    <tripinfo id="1_66" depart="471.00" departLane="54o_0" departPos="5.10" departSpeed="0.00" departDelay="-0.24" arrival="554.00" arrivalLane="52i_0" arrivalPos="10.00" arrivalSpeed="17.57" duration="83.00" routeLength="617.75" waitingTime="24.00" waitingCount="2" stopTime="0.00" timeLoss="46.27" rerouteNo="0" devices="tripinfo_1_66" vType="DEFAULT_VEHTYPE" speedFactor="0.91" vaporized=""/>
    <tripinfo id="1_73" depart="521.00" departLane="54o_0" departPos="5.10" departSpeed="0.00" departDelay="-0.22" arrival="562.00" arrivalLane="52i_0" arrivalPos="10.00" arrivalSpeed="19.99" duration="41.00" routeLength="617.75" waitingTime="0.00" waitingCount="0" stopTime="0.00" timeLoss="9.45" rerouteNo="0" devices="tripinfo_1_73" vType="DEFAULT_VEHTYPE" speedFactor="1.06" vaporized=""/>
    <tripinfo id="1_82" depart="585.00" departLane="54o_0" departPos="5.10" departSpeed="0.00" departDelay="-0.48" arrival="623.00" arrivalLane="3o_0" arrivalPos="286.40" arrivalSpeed="19.14" duration="38.00" routeLength="605.00" waitingTime="0.00" waitingCount="0" stopTime="0.00" timeLoss="6.46" rerouteNo="0" devices="tripinfo_1_82" vType="DEFAULT_VEHTYPE" speedFactor="1.02" vaporized=""/>
    <tripinfo id="1_57" depart="406.00" departLane="52o_0" departPos="5.10" departSpeed="0.00" departDelay="-0.98" arrival="656.00" arrivalLane="51i_0" arrivalPos="10.00" arrivalSpeed="21.02" duration="250.00" routeLength="615.10" waitingTime="206.00" waitingCount="1" stopTime="0.00" timeLoss="221.44" rerouteNo="0" devices="tripinfo_1_57" vType="DEFAULT_VEHTYPE" speedFactor="1.14" vaporized=""/>
    <tripinfo id="1_59" depart="421.00" departLane="52o_0" departPos="5.10" departSpeed="0.00" departDelay="-0.26" arrival="658.00" arrivalLane="53i_0" arrivalPos="10.00" arrivalSpeed="18.19" duration="237.00" routeLength="617.75" waitingTime="191.00" waitingCount="1" stopTime="0.00" timeLoss="202.74" rerouteNo="0" devices="tripinfo_1_59" vType="DEFAULT_VEHTYPE" speedFactor="0.97" vaporized=""/>
    <tripinfo id="1_72" depart="514.00" departLane="52o_0" departPos="5.10" departSpeed="0.00" departDelay="-0.08" arrival="658.00" arrivalLane="51i_0" arrivalPos="10.00" arrivalSpeed="17.27" duration="144.00" routeLength="615.10" waitingTime="98.00" waitingCount="1" stopTime="0.00" timeLoss="110.02" rerouteNo="0" devices="tripinfo_1_72" vType="DEFAULT_VEHTYPE" speedFactor="0.94" vaporized=""/>
    <tripinfo id="1_75" depart="535.00" departLane="52o_0" departPos="5.10" departSpeed="0.00" departDelay="-0.50" arrival="659.00" arrivalLane="51i_1" arrivalPos="10.00" arrivalSpeed="18.05" duration="124.00" routeLength="615.10" waitingTime="74.00" waitingCount="1" stopTime="0.00" timeLoss="91.43" rerouteNo="0" devices="tripinfo_1_75" vType="DEFAULT_VEHTYPE" speedFactor="0.98" vaporized=""/>
    <tripinfo id="1_71" depart="506.00" departLane="52o_0" departPos="5.10" departSpeed="0.00" departDelay="-0.94" arrival="660.00" arrivalLane="53i_0" arrivalPos="10.00" arrivalSpeed="18.56" duration="154.00" routeLength="617.75" waitingTime="109.00" waitingCount="1" stopTime="0.00" timeLoss="119.70" rerouteNo="0" devices="tripinfo_1_71" vType="DEFAULT_VEHTYPE" speedFactor="0.97" vaporized=""/>
    <tripinfo id="1_81" depart="578.00" departLane="52o_0" departPos="5.10" departSpeed="0.00" departDelay="-0.34" arrival="663.00" arrivalLane="53i_0" arrivalPos="10.00" arrivalSpeed="18.53" duration="85.00" routeLength="617.75" waitingTime="37.00" waitingCount="1" stopTime="0.00" timeLoss="51.12" rerouteNo="0" devices="tripinfo_1_81" vType="DEFAULT_VEHTYPE" speedFactor="1.00" vaporized=""/>