<?xml version="1.0" encoding="UTF-8"?>

<!-- generated on Fri Nov  8 02:27:45 2019 by Eclipse SUMO Version 1.2.0
<configuration xmlns:xsi="http://www.w3.org/2001/XMLSchema-instance" xsi:noNamespaceSchemaLocation="http://sumo.dlr.de/xsd/sumoConfiguration.xsd">

    <input>
        <net-file value="simulation_files/sumocfgs/../networks/isolated_3_lanes_4_stages.net.xml"/>
        <route-files value="simulation_files/sumocfgs/../routes/isolated_3_lanes_40p.rou.xml"/>
    </input>

    <output>
        <tripinfo-output value="./output/exp21_rf_40p/act_throughput_mqr__3_tripinfo_isolated.xml"/>
    </output>

    <time>
        <begin value="0"/>
        <step-length value="1"/>
    </time>

    <report>
        <verbose value="true"/>
        <no-step-log value="true"/>
    </report>

    <gui_only>
        <tracker-interval value="1"/>
    </gui_only>

</configuration>
-->

<tripinfos xmlns:xsi="http://www.w3.org/2001/XMLSchema-instance" xsi:noNamespaceSchemaLocation="http://sumo.dlr.de/xsd/tripinfo_file.xsd">
    <tripinfo id="8" depart="15.00" departLane="52o_0" departPos="5.10" departSpeed="0.00" departDelay="0.68" arrival="55.00" arrivalLane="51i_1" arrivalPos="10.00" arrivalSpeed="17.36" duration="40.00" routeLength="615.10" waitingTime="0.00" waitingCount="0" stopTime="0.00" timeLoss="5.42" rerouteNo="0" devices="tripinfo_8" vType="DEFAULT_VEHTYPE" speedFactor="0.94" vaporized=""/>
    <tripinfo id="7" depart="12.00" departLane="52o_0" departPos="5.10" departSpeed="0.00" departDelay="-0.53" arrival="57.00" arrivalLane="54i_0" arrivalPos="10.00" arrivalSpeed="16.24" duration="45.00" routeLength="596.93" waitingTime="0.00" waitingCount="0" stopTime="0.00" timeLoss="8.52" rerouteNo="0" devices="tripinfo_7" vType="DEFAULT_VEHTYPE" speedFactor="0.89" vaporized=""/>
    <tripinfo id="13" depart="23.00" departLane="52o_0" departPos="5.10" departSpeed="0.00" departDelay="-0.27" arrival="57.00" arrivalLane="51i_0" arrivalPos="10.00" arrivalSpeed="20.74" duration="34.00" routeLength="615.10" waitingTime="0.00" waitingCount="0" stopTime="0.00" timeLoss="5.47" rerouteNo="0" devices="tripinfo_13" vType="DEFAULT_VEHTYPE" speedFactor="1.12" vaporized=""/>
    <tripinfo id="16" depart="28.00" departLane="52o_0" departPos="5.10" departSpeed="0.00" departDelay="-0.64" arrival="70.00" arrivalLane="51i_0" arrivalPos="10.00" arrivalSpeed="16.06" duration="42.00" routeLength="615.10" waitingTime="0.00" waitingCount="0" stopTime="0.00" timeLoss="5.12" rerouteNo="0" devices="tripinfo_16" vType="DEFAULT_VEHTYPE" speedFactor="0.88" vaporized=""/>
    <tripinfo id="18" depart="32.00" departLane="52o_0" departPos="5.10" departSpeed="0.00" departDelay="-0.22" arrival="71.00" arrivalLane="51i_0" arrivalPos="10.00" arrivalSpeed="17.28" duration="39.00" routeLength="615.10" waitingTime="0.00" waitingCount="0" stopTime="0.00" timeLoss="4.94" rerouteNo="0" devices="tripinfo_18" vType="DEFAULT_VEHTYPE" speedFactor="0.94" vaporized=""/>
    <tripinfo id="20" depart="35.00" departLane="52o_0" departPos="5.10" departSpeed="0.00" departDelay="-0.80" arrival="75.00" arrivalLane="54i_0" arrivalPos="10.00" arrivalSpeed="19.54" duration="40.00" routeLength="596.93" waitingTime="0.00" waitingCount="0" stopTime="0.00" timeLoss="8.71" rerouteNo="0" devices="tripinfo_20" vType="DEFAULT_VEHTYPE" speedFactor="1.02" vaporized=""/>
    <tripinfo id="26" depart="46.00" departLane="52o_0" departPos="5.10" departSpeed="0.00" departDelay="-0.54" arrival="86.00" arrivalLane="51i_0" arrivalPos="10.00" arrivalSpeed="16.79" duration="40.00" routeLength="615.10" waitingTime="0.00" waitingCount="0" stopTime="0.00" timeLoss="5.42" rerouteNo="0" devices="tripinfo_26" vType="DEFAULT_VEHTYPE" speedFactor="0.92" vaporized=""/>
    <tripinfo id="27" depart="49.00" departLane="52o_0" departPos="5.10" departSpeed="0.00" departDelay="0.67" arrival="88.00" arrivalLane="51i_0" arrivalPos="10.00" arrivalSpeed="18.08" duration="39.00" routeLength="615.10" waitingTime="0.00" waitingCount="0" stopTime="0.00" timeLoss="5.57" rerouteNo="0" devices="tripinfo_27" vType="DEFAULT_VEHTYPE" speedFactor="0.95" vaporized=""/>
    <tripinfo id="37" depart="66.00" departLane="52o_0" departPos="5.10" departSpeed="0.00" departDelay="-0.23" arrival="99.00" arrivalLane="51i_0" arrivalPos="10.00" arrivalSpeed="21.83" duration="33.00" routeLength="615.10" waitingTime="0.00" waitingCount="0" stopTime="0.00" timeLoss="5.94" rerouteNo="0" devices="tripinfo_37" vType="DEFAULT_VEHTYPE" speedFactor="1.18" vaporized=""/>
    <tripinfo id="34" depart="60.00" departLane="52o_0" departPos="5.10" departSpeed="0.00" departDelay="-0.86" arrival="101.00" arrivalLane="53i_0" arrivalPos="10.00" arrivalSpeed="18.73" duration="41.00" routeLength="617.75" waitingTime="0.00" waitingCount="0" stopTime="0.00" timeLoss="7.04" rerouteNo="0" devices="tripinfo_34" vType="DEFAULT_VEHTYPE" speedFactor="0.99" vaporized=""/>
    <tripinfo id="38" depart="69.00" departLane="52o_0" departPos="5.10" departSpeed="0.00" departDelay="0.98" arrival="107.00" arrivalLane="54i_0" arrivalPos="10.00" arrivalSpeed="21.30" duration="38.00" routeLength="596.93" waitingTime="0.00" waitingCount="0" stopTime="0.00" timeLoss="9.23" rerouteNo="0" devices="tripinfo_38" vType="DEFAULT_VEHTYPE" speedFactor="1.10" vaporized=""/>
    <tripinfo id="43" depart="76.00" departLane="52o_0" departPos="5.10" departSpeed="0.00" departDelay="-0.97" arrival="116.00" arrivalLane="54i_0" arrivalPos="10.00" arrivalSpeed="19.84" duration="40.00" routeLength="596.93" waitingTime="0.00" waitingCount="0" stopTime="0.00" timeLoss="9.15" rerouteNo="0" devices="tripinfo_43" vType="DEFAULT_VEHTYPE" speedFactor="1.04" vaporized=""/>
    <tripinfo id="46" depart="82.00" departLane="52o_0" departPos="5.10" departSpeed="0.00" departDelay="-0.34" arrival="120.00" arrivalLane="51i_0" arrivalPos="10.00" arrivalSpeed="19.20" duration="38.00" routeLength="615.10" waitingTime="0.00" waitingCount="0" stopTime="0.00" timeLoss="6.00" rerouteNo="0" devices="tripinfo_46" vType="DEFAULT_VEHTYPE" speedFactor="1.00" vaporized=""/>
    <tripinfo id="51" depart="91.00" departLane="52o_0" departPos="5.10" departSpeed="0.00" departDelay="-0.29" arrival="129.00" arrivalLane="53i_0" arrivalPos="10.00" arrivalSpeed="21.97" duration="38.00" routeLength="617.75" waitingTime="0.00" waitingCount="0" stopTime="0.00" timeLoss="9.28" rerouteNo="0" devices="tripinfo_51" vType="DEFAULT_VEHTYPE" speedFactor="1.17" vaporized=""/>
    <tripinfo id="52" depart="94.00" departLane="52o_0" departPos="5.10" departSpeed="0.00" departDelay="0.92" arrival="136.00" arrivalLane="53i_0" arrivalPos="10.00" arrivalSpeed="19.71" duration="42.00" routeLength="617.75" waitingTime="0.00" waitingCount="0" stopTime="0.00" timeLoss="8.83" rerouteNo="0" devices="tripinfo_52" vType="DEFAULT_VEHTYPE" speedFactor="1.02" vaporized=""/>
    <tripinfo id="53" depart="97.00" departLane="52o_0" departPos="5.10" departSpeed="0.00" departDelay="2.13" arrival="137.00" arrivalLane="53i_0" arrivalPos="10.00" arrivalSpeed="20.80" duration="40.00" routeLength="617.75" waitingTime="0.00" waitingCount="0" stopTime="0.00" timeLoss="9.64" rerouteNo="0" devices="tripinfo_53" vType="DEFAULT_VEHTYPE" speedFactor="1.10" vaporized=""/>
    <tripinfo id="19" depart="34.00" departLane="53o_0" departPos="5.10" departSpeed="0.00" departDelay="-0.01" arrival="155.00" arrivalLane="54i_0" arrivalPos="10.00" arrivalSpeed="21.74" duration="121.00" routeLength="615.10" waitingTime="78.00" waitingCount="1" stopTime="0.00" timeLoss="93.09" rerouteNo="0" devices="tripinfo_19" vType="DEFAULT_VEHTYPE" speedFactor="1.16" vaporized=""/>
    <tripinfo id="0" depart="0.00" departLane="53o_0" departPos="5.10" departSpeed="0.00" departDelay="0.00" arrival="157.00" arrivalLane="51i_0" arrivalPos="10.00" arrivalSpeed="19.44" duration="157.00" routeLength="617.75" waitingTime="114.00" waitingCount="1" stopTime="0.00" timeLoss="126.21" rerouteNo="0" devices="tripinfo_0" vType="DEFAULT_VEHTYPE" speedFactor="1.06" vaporized=""/>
    <tripinfo id="31" depart="55.00" departLane="53o_0" departPos="5.10" departSpeed="0.00" departDelay="-0.49" arrival="157.00" arrivalLane="52i_0" arrivalPos="10.00" arrivalSpeed="21.22" duration="102.00" routeLength="596.93" waitingTime="59.00" waitingCount="1" stopTime="0.00" timeLoss="74.07" rerouteNo="0" devices="tripinfo_31" vType="DEFAULT_VEHTYPE" speedFactor="1.15" vaporized=""/>
    <tripinfo id="56" depart="100.00" departLane="53o_0" departPos="5.10" departSpeed="0.00" departDelay="-0.24" arrival="159.00" arrivalLane="54i_1" arrivalPos="10.00" arrivalSpeed="16.77" duration="59.00" routeLength="615.10" waitingTime="12.00" waitingCount="1" stopTime="0.00" timeLoss="23.30" rerouteNo="0" devices="tripinfo_56" vType="DEFAULT_VEHTYPE" speedFactor="0.90" vaporized=""/>
    <tripinfo id="4" depart="7.00" departLane="53o_0" departPos="5.10" departSpeed="0.00" departDelay="-0.16" arrival="160.00" arrivalLane="51i_0" arrivalPos="10.00" arrivalSpeed="19.81" duration="153.00" routeLength="617.75" waitingTime="108.00" waitingCount="1" stopTime="0.00" timeLoss="120.69" rerouteNo="0" devices="tripinfo_4" vType="DEFAULT_VEHTYPE" speedFactor="1.03" vaporized=""/>
    <tripinfo id="35" depart="62.00" departLane="53o_0" departPos="5.10" departSpeed="0.00" departDelay="-0.65" arrival="161.00" arrivalLane="52i_0" arrivalPos="10.00" arrivalSpeed="18.58" duration="99.00" routeLength="596.93" waitingTime="53.00" waitingCount="1" stopTime="0.00" timeLoss="68.08" rerouteNo="0" devices="tripinfo_35" vType="DEFAULT_VEHTYPE" speedFactor="1.02" vaporized=""/>
    <tripinfo id="14" depart="25.00" departLane="53o_0" departPos="5.10" departSpeed="0.00" departDelay="-0.06" arrival="162.00" arrivalLane="51i_0" arrivalPos="10.00" arrivalSpeed="18.96" duration="137.00" routeLength="617.75" waitingTime="91.00" waitingCount="1" stopTime="0.00" timeLoss="103.74" rerouteNo="0" devices="tripinfo_14" vType="DEFAULT_VEHTYPE" speedFactor="0.99" vaporized=""/>
    <tripinfo id="67" depart="119.00" departLane="53o_0" departPos="5.10" departSpeed="0.00" departDelay="-0.93" arrival="164.00" arrivalLane="54i_1" arrivalPos="10.00" arrivalSpeed="17.37" duration="45.00" routeLength="615.10" waitingTime="0.00" waitingCount="0" stopTime="0.00" timeLoss="10.10" rerouteNo="0" devices="tripinfo_67" vType="DEFAULT_VEHTYPE" speedFactor="0.91" vaporized=""/>
    <tripinfo id="41" depart="73.00" departLane="53o_0" departPos="5.10" departSpeed="0.00" departDelay="-0.39" arrival="165.00" arrivalLane="52i_0" arrivalPos="10.00" arrivalSpeed="17.85" duration="92.00" routeLength="596.93" waitingTime="44.00" waitingCount="1" stopTime="0.00" timeLoss="58.29" rerouteNo="0" devices="tripinfo_41" vType="DEFAULT_VEHTYPE" speedFactor="0.96" vaporized=""/>
    <tripinfo id="15" depart="28.00" departLane="53o_0" departPos="5.10" departSpeed="0.00" departDelay="1.15" arrival="167.00" arrivalLane="51i_0" arrivalPos="10.00" arrivalSpeed="17.76" duration="139.00" routeLength="617.75" waitingTime="89.00" waitingCount="1" stopTime="0.00" timeLoss="103.42" rerouteNo="0" devices="tripinfo_15" vType="DEFAULT_VEHTYPE" speedFactor="0.93" vaporized=""/>
    <tripinfo id="44" depart="78.00" departLane="53o_0" departPos="5.10" departSpeed="0.00" departDelay="-0.76" arrival="167.00" arrivalLane="52i_0" arrivalPos="10.00" arrivalSpeed="19.01" duration="89.00" routeLength="596.93" waitingTime="39.00" waitingCount="1" stopTime="0.00" timeLoss="57.69" rerouteNo="0" devices="tripinfo_44" vType="DEFAULT_VEHTYPE" speedFactor="1.04" vaporized=""/>
    <tripinfo id="57" depart="103.00" departLane="53o_0" departPos="5.10" departSpeed="0.00" departDelay="0.97" arrival="168.00" arrivalLane="52i_0" arrivalPos="10.00" arrivalSpeed="21.09" duration="65.00" routeLength="596.93" waitingTime="17.00" waitingCount="1" stopTime="0.00" timeLoss="37.32" rerouteNo="0" devices="tripinfo_57" vType="DEFAULT_VEHTYPE" speedFactor="1.14" vaporized=""/>
    <tripinfo id="23" depart="41.00" departLane="53o_0" departPos="5.10" departSpeed="0.00" departDelay="-0.17" arrival="170.00" arrivalLane="51i_0" arrivalPos="10.00" arrivalSpeed="16.31" duration="129.00" routeLength="617.75" waitingTime="76.00" waitingCount="1" stopTime="0.00" timeLoss="91.38" rerouteNo="0" devices="tripinfo_23" vType="DEFAULT_VEHTYPE" speedFactor="0.89" vaporized=""/>
    <tripinfo id="69" depart="123.00" departLane="53o_0" departPos="5.10" departSpeed="0.00" departDelay="-0.51" arrival="172.00" arrivalLane="52i_0" arrivalPos="10.00" arrivalSpeed="18.71" duration="49.00" routeLength="596.93" waitingTime="0.00" waitingCount="0" stopTime="0.00" timeLoss="17.03" rerouteNo="0" devices="tripinfo_69" vType="DEFAULT_VEHTYPE" speedFactor="1.02" vaporized=""/>
    <tripinfo id="24" depart="44.00" departLane="53o_0" departPos="5.10" departSpeed="0.00" departDelay="1.04" arrival="174.00" arrivalLane="51i_0" arrivalPos="10.00" arrivalSpeed="15.70" duration="130.00" routeLength="617.75" waitingTime="72.00" waitingCount="1" stopTime="0.00" timeLoss="89.98" rerouteNo="0" devices="tripinfo_24" vType="DEFAULT_VEHTYPE" speedFactor="0.83" vaporized=""/>
    <tripinfo id="47" depart="84.00" departLane="53o_0" departPos="5.10" departSpeed="0.00" departDelay="-0.13" arrival="175.00" arrivalLane="51i_1" arrivalPos="10.00" arrivalSpeed="16.41" duration="91.00" routeLength="617.75" waitingTime="37.00" waitingCount="1" stopTime="0.00" timeLoss="53.62" rerouteNo="0" devices="tripinfo_47" vType="DEFAULT_VEHTYPE" speedFactor="0.90" vaporized=""/>
    <tripinfo id="62" depart="110.00" departLane="53o_0" departPos="5.10" departSpeed="0.00" departDelay="-0.98" arrival="176.00" arrivalLane="51i_0" arrivalPos="10.00" arrivalSpeed="19.36" duration="66.00" routeLength="617.75" waitingTime="11.00" waitingCount="1" stopTime="0.00" timeLoss="33.07" rerouteNo="0" devices="tripinfo_62" vType="DEFAULT_VEHTYPE" speedFactor="1.02" vaporized=""/>
    <tripinfo id="79" depart="142.00" departLane="53o_0" departPos="5.10" departSpeed="0.00" departDelay="0.59" arrival="176.00" arrivalLane="54i_0" arrivalPos="10.00" arrivalSpeed="20.70" duration="34.00" routeLength="615.10" waitingTime="0.00" waitingCount="0" stopTime="0.00" timeLoss="4.75" rerouteNo="0" devices="tripinfo_79" vType="DEFAULT_VEHTYPE" speedFactor="1.09" vaporized=""/>
    <tripinfo id="74" depart="132.00" departLane="53o_0" departPos="5.10" departSpeed="0.00" departDelay="-0.46" arrival="179.00" arrivalLane="51i_0" arrivalPos="10.00" arrivalSpeed="18.11" duration="47.00" routeLength="617.75" waitingTime="0.00" waitingCount="0" stopTime="0.00" timeLoss="12.20" rerouteNo="0" devices="tripinfo_74" vType="DEFAULT_VEHTYPE" speedFactor="0.96" vaporized=""/>
    <tripinfo id="78" depart="139.00" departLane="53o_0" departPos="5.10" departSpeed="0.00" departDelay="-0.62" arrival="180.00" arrivalLane="51i_0" arrivalPos="10.00" arrivalSpeed="19.54" duration="41.00" routeLength="617.75" waitingTime="0.00" waitingCount="0" stopTime="0.00" timeLoss="8.16" rerouteNo="0" devices="tripinfo_78" vType="DEFAULT_VEHTYPE" speedFactor="1.01" vaporized=""/>
    <tripinfo id="81" depart="145.00" departLane="53o_0" departPos="5.10" departSpeed="0.00" departDelay="0.01" arrival="182.00" arrivalLane="54i_0" arrivalPos="10.00" arrivalSpeed="18.39" duration="37.00" routeLength="615.10" waitingTime="0.00" waitingCount="0" stopTime="0.00" timeLoss="5.13" rerouteNo="0" devices="tripinfo_81" vType="DEFAULT_VEHTYPE" speedFactor="1.00" vaporized=""/>
    <tripinfo id="93" depart="166.00" departLane="53o_0" departPos="5.10" departSpeed="0.00" departDelay="-0.47" arrival="206.00" arrivalLane="54i_0" arrivalPos="10.00" arrivalSpeed="17.81" duration="40.00" routeLength="615.10" waitingTime="0.00" waitingCount="0" stopTime="0.00" timeLoss="4.98" rerouteNo="0" devices="tripinfo_93" vType="DEFAULT_VEHTYPE" speedFactor="0.92" vaporized=""/>
    <tripinfo id="91" depart="162.00" departLane="53o_0" departPos="5.10" departSpeed="0.00" departDelay="-0.89" arrival="207.00" arrivalLane="51i_0" arrivalPos="10.00" arrivalSpeed="16.29" duration="45.00" routeLength="617.75" waitingTime="0.00" waitingCount="0" stopTime="0.00" timeLoss="7.26" rerouteNo="0" devices="tripinfo_91" vType="DEFAULT_VEHTYPE" speedFactor="0.89" vaporized=""/>
    <tripinfo id="94" depart="169.00" departLane="53o_0" departPos="5.10" departSpeed="0.00" departDelay="0.74" arrival="209.00" arrivalLane="51i_0" arrivalPos="10.00" arrivalSpeed="20.32" duration="40.00" routeLength="617.75" waitingTime="0.00" waitingCount="0" stopTime="0.00" timeLoss="9.12" rerouteNo="0" devices="tripinfo_94" vType="DEFAULT_VEHTYPE" speedFactor="1.09" vaporized=""/>
    <tripinfo id="101" depart="180.00" departLane="53o_0" departPos="5.10" departSpeed="0.00" departDelay="-0.79" arrival="223.00" arrivalLane="52i_0" arrivalPos="10.00" arrivalSpeed="18.54" duration="43.00" routeLength="596.93" waitingTime="0.00" waitingCount="0" stopTime="0.00" timeLoss="9.60" rerouteNo="0" devices="tripinfo_101" vType="DEFAULT_VEHTYPE" speedFactor="0.96" vaporized=""/>
    <tripinfo id="105" depart="187.00" departLane="53o_0" departPos="5.10" departSpeed="0.00" departDelay="-0.95" arrival="225.00" arrivalLane="51i_0" arrivalPos="10.00" arrivalSpeed="19.58" duration="38.00" routeLength="617.75" waitingTime="0.00" waitingCount="0" stopTime="0.00" timeLoss="6.88" rerouteNo="0" devices="tripinfo_105" vType="DEFAULT_VEHTYPE" speedFactor="1.07" vaporized=""/>
    <tripinfo id="106" depart="190.00" departLane="53o_0" departPos="5.10" departSpeed="0.00" departDelay="0.26" arrival="230.00" arrivalLane="52i_0" arrivalPos="10.00" arrivalSpeed="19.54" duration="40.00" routeLength="596.93" waitingTime="0.00" waitingCount="0" stopTime="0.00" timeLoss="8.56" rerouteNo="0" devices="tripinfo_106" vType="DEFAULT_VEHTYPE" speedFactor="1.01" vaporized=""/>
    <tripinfo id="108" depart="193.00" departLane="53o_0" departPos="5.10" departSpeed="0.00" departDelay="-0.32" arrival="233.00" arrivalLane="52i_0" arrivalPos="10.00" arrivalSpeed="19.79" duration="40.00" routeLength="596.93" waitingTime="0.00" waitingCount="0" stopTime="0.00" timeLoss="9.60" rerouteNo="0" devices="tripinfo_108" vType="DEFAULT_VEHTYPE" speedFactor="1.06" vaporized=""/>
    <tripinfo id="112" depart="200.00" departLane="53o_0" departPos="5.10" departSpeed="0.00" departDelay="-0.48" arrival="240.00" arrivalLane="52i_0" arrivalPos="10.00" arrivalSpeed="20.58" duration="40.00" routeLength="596.93" waitingTime="0.00" waitingCount="0" stopTime="0.00" timeLoss="10.02" rerouteNo="0" devices="tripinfo_112" vType="DEFAULT_VEHTYPE" speedFactor="1.10" vaporized=""/>
    <tripinfo id="116" depart="207.00" departLane="53o_0" departPos="5.10" departSpeed="0.00" departDelay="-0.64" arrival="244.00" arrivalLane="52i_0" arrivalPos="10.00" arrivalSpeed="22.82" duration="37.00" routeLength="596.93" waitingTime="0.00" waitingCount="0" stopTime="0.00" timeLoss="10.28" rerouteNo="0" devices="tripinfo_116" vType="DEFAULT_VEHTYPE" speedFactor="1.18" vaporized=""/>
    <tripinfo id="119" depart="213.00" departLane="53o_0" departPos="5.10" departSpeed="0.00" departDelay="-0.01" arrival="252.00" arrivalLane="52i_0" arrivalPos="10.00" arrivalSpeed="20.18" duration="39.00" routeLength="596.93" waitingTime="0.00" waitingCount="0" stopTime="0.00" timeLoss="8.86" rerouteNo="0" devices="tripinfo_119" vType="DEFAULT_VEHTYPE" speedFactor="1.07" vaporized=""/>
    <tripinfo id="2" depart="4.00" departLane="51o_0" departPos="5.10" departSpeed="0.00" departDelay="0.42" arrival="257.00" arrivalLane="53i_0" arrivalPos="10.00" arrivalSpeed="19.12" duration="253.00" routeLength="596.93" waitingTime="208.00" waitingCount="1" stopTime="0.00" timeLoss="221.62" rerouteNo="0" devices="tripinfo_2" vType="DEFAULT_VEHTYPE" speedFactor="1.01" vaporized=""/>
    <tripinfo id="12" depart="22.00" departLane="51o_0" departPos="5.10" departSpeed="0.00" departDelay="0.52" arrival="257.00" arrivalLane="52i_0" arrivalPos="10.00" arrivalSpeed="19.65" duration="235.00" routeLength="615.10" waitingTime="192.00" waitingCount="1" stopTime="0.00" timeLoss="204.61" rerouteNo="0" devices="tripinfo_12" vType="DEFAULT_VEHTYPE" speedFactor="1.05" vaporized=""/>
    <tripinfo id="28" depart="50.00" departLane="51o_0" departPos="5.10" departSpeed="0.00" departDelay="-0.12" arrival="258.00" arrivalLane="52i_1" arrivalPos="10.00" arrivalSpeed="21.31" duration="208.00" routeLength="615.10" waitingTime="162.00" waitingCount="2" stopTime="0.00" timeLoss="179.88" rerouteNo="0" devices="tripinfo_28" vType="DEFAULT_VEHTYPE" speedFactor="1.13" vaporized=""/>
    <tripinfo id="3" depart="7.00" departLane="51o_0" departPos="5.10" departSpeed="0.00" departDelay="1.63" arrival="259.00" arrivalLane="53i_0" arrivalPos="10.00" arrivalSpeed="20.04" duration="252.00" routeLength="596.93" waitingTime="207.00" waitingCount="1" stopTime="0.00" timeLoss="222.00" rerouteNo="0" devices="tripinfo_3" vType="DEFAULT_VEHTYPE" speedFactor="1.08" vaporized=""/>
    <tripinfo id="1" depart="1.00" departLane="51o_0" departPos="5.10" departSpeed="0.00" departDelay="-0.79" arrival="260.00" arrivalLane="54i_0" arrivalPos="10.00" arrivalSpeed="17.83" duration="259.00" routeLength="617.75" waitingTime="210.00" waitingCount="1" stopTime="0.00" timeLoss="223.25" rerouteNo="0" devices="tripinfo_1" vType="DEFAULT_VEHTYPE" speedFactor="0.94" vaporized=""/>
    <tripinfo id="39" depart="69.00" departLane="51o_0" departPos="5.10" departSpeed="0.00" departDelay="-0.81" arrival="263.00" arrivalLane="52i_1" arrivalPos="10.00" arrivalSpeed="16.52" duration="194.00" routeLength="615.10" waitingTime="142.00" waitingCount="1" stopTime="0.00" timeLoss="158.71" rerouteNo="0" devices="tripinfo_39" vType="DEFAULT_VEHTYPE" speedFactor="0.90" vaporized=""/>
    <tripinfo id="25" depart="44.00" departLane="51o_0" departPos="5.10" departSpeed="0.00" departDelay="-0.75" arrival="264.00" arrivalLane="54i_0" arrivalPos="10.00" arrivalSpeed="16.19" duration="220.00" routeLength="617.75" waitingTime="169.00" waitingCount="1" stopTime="0.00" timeLoss="181.92" rerouteNo="0" devices="tripinfo_25" vType="DEFAULT_VEHTYPE" speedFactor="0.87" vaporized=""/>
    <tripinfo id="29" depart="53.00" departLane="51o_0" departPos="5.10" departSpeed="0.00" departDelay="1.09" arrival="264.00" arrivalLane="52i_2" arrivalPos="10.00" arrivalSpeed="17.00" duration="211.00" routeLength="615.10" waitingTime="162.00" waitingCount="1" stopTime="0.00" timeLoss="176.82" rerouteNo="0" devices="tripinfo_29" vType="DEFAULT_VEHTYPE" speedFactor="0.93" vaporized=""/>
    <tripinfo id="5" depart="10.00" departLane="51o_0" departPos="5.10" departSpeed="0.00" departDelay="1.05" arrival="266.00" arrivalLane="53i_0" arrivalPos="10.00" arrivalSpeed="14.97" duration="256.00" routeLength="596.93" waitingTime="203.00" waitingCount="1" stopTime="0.00" timeLoss="217.43" rerouteNo="0" devices="tripinfo_5" vType="DEFAULT_VEHTYPE" speedFactor="0.83" vaporized=""/>
    <tripinfo id="65" depart="118.00" departLane="51o_0" departPos="5.10" departSpeed="0.00" departDelay="1.65" arrival="266.00" arrivalLane="52i_1" arrivalPos="10.00" arrivalSpeed="17.11" duration="148.00" routeLength="615.10" waitingTime="98.00" waitingCount="1" stopTime="0.00" timeLoss="111.19" rerouteNo="0" devices="tripinfo_65" vType="DEFAULT_VEHTYPE" speedFactor="0.88" vaporized=""/>
    <tripinfo id="11" depart="19.00" departLane="51o_0" departPos="5.10" departSpeed="0.00" departDelay="-0.69" arrival="267.00" arrivalLane="53i_1" arrivalPos="10.00" arrivalSpeed="19.52" duration="248.00" routeLength="596.93" waitingTime="199.00" waitingCount="1" stopTime="0.00" timeLoss="217.34" rerouteNo="0" devices="tripinfo_11" vType="DEFAULT_VEHTYPE" speedFactor="1.03" vaporized=""/>
    <tripinfo id="64" depart="115.00" departLane="51o_0" departPos="5.10" departSpeed="0.00" departDelay="0.44" arrival="267.00" arrivalLane="52i_1" arrivalPos="10.00" arrivalSpeed="17.06" duration="152.00" routeLength="615.10" waitingTime="99.00" waitingCount="2" stopTime="0.00" timeLoss="117.95" rerouteNo="0" devices="tripinfo_64" vType="DEFAULT_VEHTYPE" speedFactor="0.94" vaporized=""/>
    <tripinfo id="32" depart="57.00" departLane="51o_0" departPos="5.10" departSpeed="0.00" departDelay="-0.28" arrival="269.00" arrivalLane="53i_0" arrivalPos="10.00" arrivalSpeed="18.59" duration="212.00" routeLength="596.93" waitingTime="161.00" waitingCount="1" stopTime="0.00" timeLoss="179.41" rerouteNo="0" devices="tripinfo_32" vType="DEFAULT_VEHTYPE" speedFactor="1.01" vaporized=""/>
    <tripinfo id="49" depart="87.00" departLane="51o_0" departPos="5.10" departSpeed="0.00" departDelay="-0.71" arrival="269.00" arrivalLane="54i_0" arrivalPos="10.00" arrivalSpeed="16.26" duration="182.00" routeLength="617.75" waitingTime="129.00" waitingCount="1" stopTime="0.00" timeLoss="142.80" rerouteNo="0" devices="tripinfo_49" vType="DEFAULT_VEHTYPE" speedFactor="0.85" vaporized=""/>
    <tripinfo id="71" depart="128.00" departLane="1i_0" departPos="5.10" departSpeed="0.00" departDelay="0.91" arrival="269.00" arrivalLane="52i_1" arrivalPos="10.00" arrivalSpeed="18.84" duration="141.00" routeLength="605.00" waitingTime="93.00" waitingCount="1" stopTime="0.00" timeLoss="108.18" rerouteNo="0" devices="tripinfo_71" vType="DEFAULT_VEHTYPE" speedFactor="0.97" vaporized=""/>
    <tripinfo id="40" depart="72.00" departLane="51o_0" departPos="5.10" departSpeed="0.00" departDelay="0.40" arrival="270.00" arrivalLane="53i_0" arrivalPos="10.00" arrivalSpeed="19.62" duration="198.00" routeLength="596.93" waitingTime="148.00" waitingCount="1" stopTime="0.00" timeLoss="167.07" rerouteNo="0" devices="tripinfo_40" vType="DEFAULT_VEHTYPE" speedFactor="1.03" vaporized=""/>
    <tripinfo id="54" depart="96.00" departLane="51o_0" departPos="5.10" departSpeed="0.00" departDelay="-0.66" arrival="270.00" arrivalLane="54i_0" arrivalPos="10.00" arrivalSpeed="18.37" duration="174.00" routeLength="617.75" waitingTime="124.00" waitingCount="1" stopTime="0.00" timeLoss="141.26" rerouteNo="0" devices="tripinfo_54" vType="DEFAULT_VEHTYPE" speedFactor="1.00" vaporized=""/>
    <tripinfo id="125" depart="224.00" departLane="51o_0" departPos="5.10" departSpeed="0.00" departDelay="0.25" arrival="270.00" arrivalLane="52i_1" arrivalPos="10.00" arrivalSpeed="20.46" duration="46.00" routeLength="615.10" waitingTime="0.00" waitingCount="0" stopTime="0.00" timeLoss="18.21" rerouteNo="0" devices="tripinfo_125" vType="DEFAULT_VEHTYPE" speedFactor="1.15" vaporized=""/>
    <tripinfo id="60" depart="107.00" departLane="51o_0" departPos="5.10" departSpeed="0.00" departDelay="-0.40" arrival="272.00" arrivalLane="53i_0" arrivalPos="10.00" arrivalSpeed="19.76" duration="165.00" routeLength="596.93" waitingTime="115.00" waitingCount="1" stopTime="0.00" timeLoss="135.64" rerouteNo="0" devices="tripinfo_60" vType="DEFAULT_VEHTYPE" speedFactor="1.08" vaporized=""/>
    <tripinfo id="66" depart="121.00" departLane="51o_0" departPos="5.10" departSpeed="0.00" departDelay="2.86" arrival="272.00" arrivalLane="54i_0" arrivalPos="10.00" arrivalSpeed="16.85" duration="151.00" routeLength="617.75" waitingTime="97.00" waitingCount="1" stopTime="0.00" timeLoss="114.76" rerouteNo="0" devices="tripinfo_66" vType="DEFAULT_VEHTYPE" speedFactor="0.91" vaporized=""/>
    <tripinfo id="129" depart="230.00" departLane="51o_0" departPos="5.10" departSpeed="0.00" departDelay="-0.91" arrival="273.00" arrivalLane="52i_1" arrivalPos="10.00" arrivalSpeed="18.99" duration="43.00" routeLength="615.10" waitingTime="0.00" waitingCount="0" stopTime="0.00" timeLoss="10.74" rerouteNo="0" devices="tripinfo_129" vType="DEFAULT_VEHTYPE" speedFactor="1.01" vaporized=""/>
    <tripinfo id="70" depart="125.00" departLane="51o_0" departPos="5.10" departSpeed="0.00" departDelay="-0.30" arrival="274.00" arrivalLane="54i_0" arrivalPos="10.00" arrivalSpeed="19.06" duration="149.00" routeLength="617.75" waitingTime="96.00" waitingCount="1" stopTime="0.00" timeLoss="116.44" rerouteNo="0" devices="tripinfo_70" vType="DEFAULT_VEHTYPE" speedFactor="1.02" vaporized=""/>
    <tripinfo id="63" depart="112.00" departLane="51o_0" departPos="5.10" departSpeed="0.00" departDelay="-0.77" arrival="276.00" arrivalLane="53i_0" arrivalPos="10.00" arrivalSpeed="18.76" duration="164.00" routeLength="596.93" waitingTime="110.00" waitingCount="1" stopTime="0.00" timeLoss="131.31" rerouteNo="0" devices="tripinfo_63" vType="DEFAULT_VEHTYPE" speedFactor="0.99" vaporized=""/>
    <tripinfo id="86" depart="153.00" departLane="51o_0" departPos="5.10" departSpeed="0.00" departDelay="-0.94" arrival="276.00" arrivalLane="54i_0" arrivalPos="10.00" arrivalSpeed="19.01" duration="123.00" routeLength="617.75" waitingTime="69.00" waitingCount="1" stopTime="0.00" timeLoss="89.36" rerouteNo="0" devices="tripinfo_86" vType="DEFAULT_VEHTYPE" speedFactor="1.00" vaporized=""/>
    <tripinfo id="77" depart="137.00" departLane="51o_0" departPos="5.10" departSpeed="0.00" departDelay="-0.83" arrival="278.00" arrivalLane="53i_0" arrivalPos="10.00" arrivalSpeed="18.66" duration="141.00" routeLength="596.93" waitingTime="88.00" waitingCount="1" stopTime="0.00" timeLoss="107.99" rerouteNo="0" devices="tripinfo_77" vType="DEFAULT_VEHTYPE" speedFactor="0.98" vaporized=""/>
    <tripinfo id="89" depart="159.00" departLane="51o_0" departPos="5.10" departSpeed="0.00" departDelay="-0.31" arrival="278.00" arrivalLane="54i_0" arrivalPos="10.00" arrivalSpeed="19.04" duration="119.00" routeLength="617.75" waitingTime="66.00" waitingCount="1" stopTime="0.00" timeLoss="86.52" rerouteNo="0" devices="tripinfo_89" vType="DEFAULT_VEHTYPE" speedFactor="1.02" vaporized=""/>
    <tripinfo id="96" depart="171.00" departLane="51o_0" departPos="5.10" departSpeed="0.00" departDelay="-0.84" arrival="280.00" arrivalLane="53i_0" arrivalPos="10.00" arrivalSpeed="18.97" duration="109.00" routeLength="596.93" waitingTime="57.00" waitingCount="1" stopTime="0.00" timeLoss="77.19" rerouteNo="0" devices="tripinfo_96" vType="DEFAULT_VEHTYPE" speedFactor="1.01" vaporized=""/>