<?xml version="1.0" encoding="UTF-8"?>

<!-- generated on Thu Nov  7 23:45:06 2019 by Eclipse SUMO Version 1.2.0
<configuration xmlns:xsi="http://www.w3.org/2001/XMLSchema-instance" xsi:noNamespaceSchemaLocation="http://sumo.dlr.de/xsd/sumoConfiguration.xsd">

    <input>
        <net-file value="simulation_files/sumocfgs/../networks/isolated_3_lanes_4_stages.net.xml"/>
        <route-files value="simulation_files/sumocfgs/../routes/isolated_3_lanes_40p.rou.xml"/>
    </input>

    <output>
        <tripinfo-output value="./output/exp21_rf_20p/delay__6_tripinfo_isolated.xml"/>
    </output>

    <time>
        <begin value="0"/>
        <step-length value="1"/>
    </time>

    <report>
        <verbose value="true"/>
        <no-step-log value="true"/>
    </report>

    <gui_only>
        <tracker-interval value="1"/>
    </gui_only>

</configuration>
-->

<tripinfos xmlns:xsi="http://www.w3.org/2001/XMLSchema-instance" xsi:noNamespaceSchemaLocation="http://sumo.dlr.de/xsd/tripinfo_file.xsd">
    <tripinfo id="8" depart="15.00" departLane="52o_0" departPos="5.10" departSpeed="0.00" departDelay="0.68" arrival="55.00" arrivalLane="51i_1" arrivalPos="10.00" arrivalSpeed="17.36" duration="40.00" routeLength="615.10" waitingTime="0.00" waitingCount="0" stopTime="0.00" timeLoss="5.42" rerouteNo="0" devices="tripinfo_8" vType="DEFAULT_VEHTYPE" speedFactor="0.94" vaporized=""/>
    <tripinfo id="7" depart="12.00" departLane="52o_0" departPos="5.10" departSpeed="0.00" departDelay="-0.53" arrival="57.00" arrivalLane="54i_0" arrivalPos="10.00" arrivalSpeed="16.24" duration="45.00" routeLength="596.93" waitingTime="0.00" waitingCount="0" stopTime="0.00" timeLoss="8.52" rerouteNo="0" devices="tripinfo_7" vType="DEFAULT_VEHTYPE" speedFactor="0.89" vaporized=""/>
    <tripinfo id="13" depart="23.00" departLane="52o_0" departPos="5.10" departSpeed="0.00" departDelay="-0.27" arrival="57.00" arrivalLane="51i_0" arrivalPos="10.00" arrivalSpeed="20.74" duration="34.00" routeLength="615.10" waitingTime="0.00" waitingCount="0" stopTime="0.00" timeLoss="5.47" rerouteNo="0" devices="tripinfo_13" vType="DEFAULT_VEHTYPE" speedFactor="1.12" vaporized=""/>
    <tripinfo id="16" depart="28.00" departLane="52o_0" departPos="5.10" departSpeed="0.00" departDelay="-0.64" arrival="70.00" arrivalLane="51i_0" arrivalPos="10.00" arrivalSpeed="16.06" duration="42.00" routeLength="615.10" waitingTime="0.00" waitingCount="0" stopTime="0.00" timeLoss="5.12" rerouteNo="0" devices="tripinfo_16" vType="DEFAULT_VEHTYPE" speedFactor="0.88" vaporized=""/>
    <tripinfo id="18" depart="32.00" departLane="52o_0" departPos="5.10" departSpeed="0.00" departDelay="-0.22" arrival="71.00" arrivalLane="51i_0" arrivalPos="10.00" arrivalSpeed="17.28" duration="39.00" routeLength="615.10" waitingTime="0.00" waitingCount="0" stopTime="0.00" timeLoss="4.94" rerouteNo="0" devices="tripinfo_18" vType="DEFAULT_VEHTYPE" speedFactor="0.94" vaporized=""/>
    <tripinfo id="20" depart="35.00" departLane="52o_0" departPos="5.10" departSpeed="0.00" departDelay="-0.80" arrival="75.00" arrivalLane="54i_0" arrivalPos="10.00" arrivalSpeed="19.54" duration="40.00" routeLength="596.93" waitingTime="0.00" waitingCount="0" stopTime="0.00" timeLoss="8.71" rerouteNo="0" devices="tripinfo_20" vType="DEFAULT_VEHTYPE" speedFactor="1.02" vaporized=""/>
    <tripinfo id="26" depart="46.00" departLane="52o_0" departPos="5.10" departSpeed="0.00" departDelay="-0.54" arrival="86.00" arrivalLane="51i_0" arrivalPos="10.00" arrivalSpeed="16.79" duration="40.00" routeLength="615.10" waitingTime="0.00" waitingCount="0" stopTime="0.00" timeLoss="5.42" rerouteNo="0" devices="tripinfo_26" vType="DEFAULT_VEHTYPE" speedFactor="0.92" vaporized=""/>
    <tripinfo id="27" depart="49.00" departLane="52o_0" departPos="5.10" departSpeed="0.00" departDelay="0.67" arrival="88.00" arrivalLane="51i_0" arrivalPos="10.00" arrivalSpeed="18.08" duration="39.00" routeLength="615.10" waitingTime="0.00" waitingCount="0" stopTime="0.00" timeLoss="5.57" rerouteNo="0" devices="tripinfo_27" vType="DEFAULT_VEHTYPE" speedFactor="0.95" vaporized=""/>
    <tripinfo id="37" depart="66.00" departLane="52o_0" departPos="5.10" departSpeed="0.00" departDelay="-0.23" arrival="99.00" arrivalLane="51i_0" arrivalPos="10.00" arrivalSpeed="21.83" duration="33.00" routeLength="615.10" waitingTime="0.00" waitingCount="0" stopTime="0.00" timeLoss="5.94" rerouteNo="0" devices="tripinfo_37" vType="DEFAULT_VEHTYPE" speedFactor="1.18" vaporized=""/>
    <tripinfo id="34" depart="60.00" departLane="52o_0" departPos="5.10" departSpeed="0.00" departDelay="-0.86" arrival="101.00" arrivalLane="53i_0" arrivalPos="10.00" arrivalSpeed="18.73" duration="41.00" routeLength="617.75" waitingTime="0.00" waitingCount="0" stopTime="0.00" timeLoss="7.04" rerouteNo="0" devices="tripinfo_34" vType="DEFAULT_VEHTYPE" speedFactor="0.99" vaporized=""/>
    <tripinfo id="38" depart="69.00" departLane="52o_0" departPos="5.10" departSpeed="0.00" departDelay="0.98" arrival="107.00" arrivalLane="54i_0" arrivalPos="10.00" arrivalSpeed="21.30" duration="38.00" routeLength="596.93" waitingTime="0.00" waitingCount="0" stopTime="0.00" timeLoss="9.23" rerouteNo="0" devices="tripinfo_38" vType="DEFAULT_VEHTYPE" speedFactor="1.10" vaporized=""/>
    <tripinfo id="43" depart="76.00" departLane="52o_0" departPos="5.10" departSpeed="0.00" departDelay="-0.97" arrival="116.00" arrivalLane="54i_0" arrivalPos="10.00" arrivalSpeed="19.84" duration="40.00" routeLength="596.93" waitingTime="0.00" waitingCount="0" stopTime="0.00" timeLoss="9.15" rerouteNo="0" devices="tripinfo_43" vType="DEFAULT_VEHTYPE" speedFactor="1.04" vaporized=""/>
    <tripinfo id="46" depart="82.00" departLane="52o_0" departPos="5.10" departSpeed="0.00" departDelay="-0.34" arrival="120.00" arrivalLane="51i_0" arrivalPos="10.00" arrivalSpeed="19.20" duration="38.00" routeLength="615.10" waitingTime="0.00" waitingCount="0" stopTime="0.00" timeLoss="6.00" rerouteNo="0" devices="tripinfo_46" vType="DEFAULT_VEHTYPE" speedFactor="1.00" vaporized=""/>
    <tripinfo id="51" depart="91.00" departLane="52o_0" departPos="5.10" departSpeed="0.00" departDelay="-0.29" arrival="129.00" arrivalLane="53i_0" arrivalPos="10.00" arrivalSpeed="21.97" duration="38.00" routeLength="617.75" waitingTime="0.00" waitingCount="0" stopTime="0.00" timeLoss="9.28" rerouteNo="0" devices="tripinfo_51" vType="DEFAULT_VEHTYPE" speedFactor="1.17" vaporized=""/>
    <tripinfo id="52" depart="94.00" departLane="52o_0" departPos="5.10" departSpeed="0.00" departDelay="0.92" arrival="136.00" arrivalLane="53i_0" arrivalPos="10.00" arrivalSpeed="19.71" duration="42.00" routeLength="617.75" waitingTime="0.00" waitingCount="0" stopTime="0.00" timeLoss="8.83" rerouteNo="0" devices="tripinfo_52" vType="DEFAULT_VEHTYPE" speedFactor="1.02" vaporized=""/>
    <tripinfo id="53" depart="97.00" departLane="52o_0" departPos="5.10" departSpeed="0.00" departDelay="2.13" arrival="137.00" arrivalLane="53i_0" arrivalPos="10.00" arrivalSpeed="21.07" duration="40.00" routeLength="617.75" waitingTime="0.00" waitingCount="0" stopTime="0.00" timeLoss="9.62" rerouteNo="0" devices="tripinfo_53" vType="DEFAULT_VEHTYPE" speedFactor="1.10" vaporized=""/>
    <tripinfo id="19" depart="34.00" departLane="53o_0" departPos="5.10" departSpeed="0.00" departDelay="-0.01" arrival="158.00" arrivalLane="54i_0" arrivalPos="10.00" arrivalSpeed="22.11" duration="124.00" routeLength="615.10" waitingTime="81.00" waitingCount="1" stopTime="0.00" timeLoss="96.54" rerouteNo="0" devices="tripinfo_19" vType="DEFAULT_VEHTYPE" speedFactor="1.16" vaporized=""/>
    <tripinfo id="0" depart="0.00" departLane="53o_0" departPos="5.10" departSpeed="0.00" departDelay="0.00" arrival="160.00" arrivalLane="51i_0" arrivalPos="10.00" arrivalSpeed="20.38" duration="160.00" routeLength="617.75" waitingTime="117.00" waitingCount="1" stopTime="0.00" timeLoss="128.46" rerouteNo="0" devices="tripinfo_0" vType="DEFAULT_VEHTYPE" speedFactor="1.06" vaporized=""/>
    <tripinfo id="31" depart="55.00" departLane="53o_0" departPos="5.10" departSpeed="0.00" departDelay="-0.49" arrival="160.00" arrivalLane="52i_0" arrivalPos="10.00" arrivalSpeed="22.15" duration="105.00" routeLength="596.93" waitingTime="62.00" waitingCount="1" stopTime="0.00" timeLoss="77.83" rerouteNo="0" devices="tripinfo_31" vType="DEFAULT_VEHTYPE" speedFactor="1.15" vaporized=""/>
    <tripinfo id="4" depart="7.00" departLane="53o_0" departPos="5.10" departSpeed="0.00" departDelay="-0.16" arrival="162.00" arrivalLane="51i_0" arrivalPos="10.00" arrivalSpeed="18.79" duration="155.00" routeLength="617.75" waitingTime="111.00" waitingCount="1" stopTime="0.00" timeLoss="122.78" rerouteNo="0" devices="tripinfo_4" vType="DEFAULT_VEHTYPE" speedFactor="1.03" vaporized=""/>
    <tripinfo id="56" depart="100.00" departLane="53o_0" departPos="5.10" departSpeed="0.00" departDelay="-0.24" arrival="162.00" arrivalLane="54i_1" arrivalPos="10.00" arrivalSpeed="16.77" duration="62.00" routeLength="615.10" waitingTime="15.00" waitingCount="1" stopTime="0.00" timeLoss="26.17" rerouteNo="0" devices="tripinfo_56" vType="DEFAULT_VEHTYPE" speedFactor="0.90" vaporized=""/>
    <tripinfo id="67" depart="119.00" departLane="53o_0" departPos="5.10" departSpeed="0.00" departDelay="-0.93" arrival="163.00" arrivalLane="54i_1" arrivalPos="10.00" arrivalSpeed="16.99" duration="44.00" routeLength="615.10" waitingTime="0.00" waitingCount="0" stopTime="0.00" timeLoss="9.38" rerouteNo="0" devices="tripinfo_67" vType="DEFAULT_VEHTYPE" speedFactor="0.91" vaporized=""/>
    <tripinfo id="35" depart="62.00" departLane="53o_0" departPos="5.10" departSpeed="0.00" departDelay="-0.65" arrival="165.00" arrivalLane="52i_0" arrivalPos="10.00" arrivalSpeed="18.60" duration="103.00" routeLength="596.93" waitingTime="56.00" waitingCount="1" stopTime="0.00" timeLoss="71.24" rerouteNo="0" devices="tripinfo_35" vType="DEFAULT_VEHTYPE" speedFactor="1.02" vaporized=""/>
    <tripinfo id="14" depart="25.00" departLane="53o_0" departPos="5.10" departSpeed="0.00" departDelay="-0.06" arrival="166.00" arrivalLane="51i_0" arrivalPos="10.00" arrivalSpeed="18.72" duration="141.00" routeLength="617.75" waitingTime="94.00" waitingCount="1" stopTime="0.00" timeLoss="107.70" rerouteNo="0" devices="tripinfo_14" vType="DEFAULT_VEHTYPE" speedFactor="0.99" vaporized=""/>
    <tripinfo id="41" depart="73.00" departLane="53o_0" departPos="5.10" departSpeed="0.00" departDelay="-0.39" arrival="168.00" arrivalLane="52i_0" arrivalPos="10.00" arrivalSpeed="17.33" duration="95.00" routeLength="596.93" waitingTime="47.00" waitingCount="1" stopTime="0.00" timeLoss="61.87" rerouteNo="0" devices="tripinfo_41" vType="DEFAULT_VEHTYPE" speedFactor="0.96" vaporized=""/>
    <tripinfo id="15" depart="28.00" departLane="53o_0" departPos="5.10" departSpeed="0.00" departDelay="1.15" arrival="169.00" arrivalLane="51i_0" arrivalPos="10.00" arrivalSpeed="17.03" duration="141.00" routeLength="617.75" waitingTime="92.00" waitingCount="1" stopTime="0.00" timeLoss="105.26" rerouteNo="0" devices="tripinfo_15" vType="DEFAULT_VEHTYPE" speedFactor="0.93" vaporized=""/>
    <tripinfo id="44" depart="78.00" departLane="53o_0" departPos="5.10" departSpeed="0.00" departDelay="-0.76" arrival="170.00" arrivalLane="52i_0" arrivalPos="10.00" arrivalSpeed="19.12" duration="92.00" routeLength="596.93" waitingTime="42.00" waitingCount="1" stopTime="0.00" timeLoss="60.69" rerouteNo="0" devices="tripinfo_44" vType="DEFAULT_VEHTYPE" speedFactor="1.04" vaporized=""/>
    <tripinfo id="57" depart="103.00" departLane="53o_0" departPos="5.10" departSpeed="0.00" departDelay="0.97" arrival="171.00" arrivalLane="52i_0" arrivalPos="10.00" arrivalSpeed="21.17" duration="68.00" routeLength="596.93" waitingTime="20.00" waitingCount="1" stopTime="0.00" timeLoss="40.40" rerouteNo="0" devices="tripinfo_57" vType="DEFAULT_VEHTYPE" speedFactor="1.14" vaporized=""/>
    <tripinfo id="23" depart="41.00" departLane="53o_0" departPos="5.10" departSpeed="0.00" departDelay="-0.17" arrival="173.00" arrivalLane="51i_0" arrivalPos="10.00" arrivalSpeed="16.94" duration="132.00" routeLength="617.75" waitingTime="79.00" waitingCount="1" stopTime="0.00" timeLoss="94.53" rerouteNo="0" devices="tripinfo_23" vType="DEFAULT_VEHTYPE" speedFactor="0.89" vaporized=""/>
    <tripinfo id="69" depart="123.00" departLane="53o_0" departPos="5.10" departSpeed="0.00" departDelay="-0.51" arrival="174.00" arrivalLane="52i_0" arrivalPos="10.00" arrivalSpeed="19.81" duration="51.00" routeLength="596.93" waitingTime="1.00" waitingCount="1" stopTime="0.00" timeLoss="19.61" rerouteNo="0" devices="tripinfo_69" vType="DEFAULT_VEHTYPE" speedFactor="1.02" vaporized=""/>
    <tripinfo id="24" depart="44.00" departLane="53o_0" departPos="5.10" departSpeed="0.00" departDelay="1.04" arrival="176.00" arrivalLane="51i_0" arrivalPos="10.00" arrivalSpeed="15.13" duration="132.00" routeLength="617.75" waitingTime="75.00" waitingCount="1" stopTime="0.00" timeLoss="91.99" rerouteNo="0" devices="tripinfo_24" vType="DEFAULT_VEHTYPE" speedFactor="0.83" vaporized=""/>
    <tripinfo id="79" depart="142.00" departLane="53o_0" departPos="5.10" departSpeed="0.00" departDelay="0.59" arrival="177.00" arrivalLane="54i_0" arrivalPos="10.00" arrivalSpeed="21.03" duration="35.00" routeLength="615.10" waitingTime="0.00" waitingCount="0" stopTime="0.00" timeLoss="5.46" rerouteNo="0" devices="tripinfo_79" vType="DEFAULT_VEHTYPE" speedFactor="1.09" vaporized=""/>
    <tripinfo id="47" depart="84.00" departLane="53o_0" departPos="5.10" departSpeed="0.00" departDelay="-0.13" arrival="178.00" arrivalLane="51i_0" arrivalPos="10.00" arrivalSpeed="17.12" duration="94.00" routeLength="617.75" waitingTime="40.00" waitingCount="1" stopTime="0.00" timeLoss="57.03" rerouteNo="0" devices="tripinfo_47" vType="DEFAULT_VEHTYPE" speedFactor="0.90" vaporized=""/>
    <tripinfo id="62" depart="110.00" departLane="53o_0" departPos="5.10" departSpeed="0.00" departDelay="-0.98" arrival="179.00" arrivalLane="51i_0" arrivalPos="10.00" arrivalSpeed="18.65" duration="69.00" routeLength="617.75" waitingTime="14.00" waitingCount="1" stopTime="0.00" timeLoss="36.60" rerouteNo="0" devices="tripinfo_62" vType="DEFAULT_VEHTYPE" speedFactor="1.02" vaporized=""/>
    <tripinfo id="74" depart="132.00" departLane="53o_0" departPos="5.10" departSpeed="0.00" departDelay="-0.46" arrival="181.00" arrivalLane="51i_0" arrivalPos="10.00" arrivalSpeed="18.56" duration="49.00" routeLength="617.75" waitingTime="0.00" waitingCount="0" stopTime="0.00" timeLoss="14.48" rerouteNo="0" devices="tripinfo_74" vType="DEFAULT_VEHTYPE" speedFactor="0.96" vaporized=""/>
    <tripinfo id="81" depart="145.00" departLane="53o_0" departPos="5.10" departSpeed="0.00" departDelay="0.01" arrival="182.00" arrivalLane="54i_0" arrivalPos="10.00" arrivalSpeed="18.28" duration="37.00" routeLength="615.10" waitingTime="0.00" waitingCount="0" stopTime="0.00" timeLoss="5.04" rerouteNo="0" devices="tripinfo_81" vType="DEFAULT_VEHTYPE" speedFactor="1.00" vaporized=""/>
    <tripinfo id="78" depart="139.00" departLane="53o_0" departPos="5.10" departSpeed="0.00" departDelay="-0.62" arrival="183.00" arrivalLane="51i_0" arrivalPos="10.00" arrivalSpeed="19.13" duration="44.00" routeLength="617.75" waitingTime="0.00" waitingCount="0" stopTime="0.00" timeLoss="10.73" rerouteNo="0" devices="tripinfo_78" vType="DEFAULT_VEHTYPE" speedFactor="1.01" vaporized=""/>
    <tripinfo id="93" depart="166.00" departLane="53o_0" departPos="5.10" departSpeed="0.00" departDelay="-0.47" arrival="206.00" arrivalLane="54i_0" arrivalPos="10.00" arrivalSpeed="17.16" duration="40.00" routeLength="615.10" waitingTime="0.00" waitingCount="0" stopTime="0.00" timeLoss="5.42" rerouteNo="0" devices="tripinfo_93" vType="DEFAULT_VEHTYPE" speedFactor="0.92" vaporized=""/>
    <tripinfo id="91" depart="162.00" departLane="53o_0" departPos="5.10" departSpeed="0.00" departDelay="-0.89" arrival="207.00" arrivalLane="51i_0" arrivalPos="10.00" arrivalSpeed="16.29" duration="45.00" routeLength="617.75" waitingTime="0.00" waitingCount="0" stopTime="0.00" timeLoss="7.41" rerouteNo="0" devices="tripinfo_91" vType="DEFAULT_VEHTYPE" speedFactor="0.89" vaporized=""/>
    <tripinfo id="94" depart="169.00" departLane="53o_0" departPos="5.10" departSpeed="0.00" departDelay="0.74" arrival="209.00" arrivalLane="51i_0" arrivalPos="10.00" arrivalSpeed="20.32" duration="40.00" routeLength="617.75" waitingTime="0.00" waitingCount="0" stopTime="0.00" timeLoss="9.26" rerouteNo="0" devices="tripinfo_94" vType="DEFAULT_VEHTYPE" speedFactor="1.09" vaporized=""/>
    <tripinfo id="101" depart="180.00" departLane="53o_0" departPos="5.10" departSpeed="0.00" departDelay="-0.79" arrival="223.00" arrivalLane="52i_0" arrivalPos="10.00" arrivalSpeed="18.42" duration="43.00" routeLength="596.93" waitingTime="0.00" waitingCount="0" stopTime="0.00" timeLoss="9.79" rerouteNo="0" devices="tripinfo_101" vType="DEFAULT_VEHTYPE" speedFactor="0.96" vaporized=""/>
    <tripinfo id="105" depart="187.00" departLane="53o_0" departPos="5.10" departSpeed="0.00" departDelay="-0.95" arrival="227.00" arrivalLane="51i_0" arrivalPos="10.00" arrivalSpeed="19.96" duration="40.00" routeLength="617.75" waitingTime="0.00" waitingCount="0" stopTime="0.00" timeLoss="9.07" rerouteNo="0" devices="tripinfo_105" vType="DEFAULT_VEHTYPE" speedFactor="1.07" vaporized=""/>
    <tripinfo id="106" depart="190.00" departLane="53o_0" departPos="5.10" departSpeed="0.00" departDelay="0.26" arrival="231.00" arrivalLane="52i_0" arrivalPos="10.00" arrivalSpeed="18.80" duration="41.00" routeLength="596.93" waitingTime="0.00" waitingCount="0" stopTime="0.00" timeLoss="9.52" rerouteNo="0" devices="tripinfo_106" vType="DEFAULT_VEHTYPE" speedFactor="1.01" vaporized=""/>
    <tripinfo id="108" depart="193.00" departLane="53o_0" departPos="5.10" departSpeed="0.00" departDelay="-0.32" arrival="233.00" arrivalLane="52i_0" arrivalPos="10.00" arrivalSpeed="19.90" duration="40.00" routeLength="596.93" waitingTime="0.00" waitingCount="0" stopTime="0.00" timeLoss="10.19" rerouteNo="0" devices="tripinfo_108" vType="DEFAULT_VEHTYPE" speedFactor="1.06" vaporized=""/>
    <tripinfo id="112" depart="200.00" departLane="53o_0" departPos="5.10" departSpeed="0.00" departDelay="-0.48" arrival="238.00" arrivalLane="52i_0" arrivalPos="10.00" arrivalSpeed="21.24" duration="38.00" routeLength="596.93" waitingTime="0.00" waitingCount="0" stopTime="0.00" timeLoss="9.29" rerouteNo="0" devices="tripinfo_112" vType="DEFAULT_VEHTYPE" speedFactor="1.10" vaporized=""/>
    <tripinfo id="116" depart="207.00" departLane="53o_0" departPos="5.10" departSpeed="0.00" departDelay="-0.64" arrival="244.00" arrivalLane="52i_0" arrivalPos="10.00" arrivalSpeed="22.76" duration="37.00" routeLength="596.93" waitingTime="0.00" waitingCount="0" stopTime="0.00" timeLoss="10.00" rerouteNo="0" devices="tripinfo_116" vType="DEFAULT_VEHTYPE" speedFactor="1.18" vaporized=""/>
    <tripinfo id="2" depart="4.00" departLane="51o_0" departPos="5.10" departSpeed="0.00" departDelay="0.42" arrival="251.00" arrivalLane="53i_0" arrivalPos="10.00" arrivalSpeed="18.39" duration="247.00" routeLength="596.93" waitingTime="202.00" waitingCount="1" stopTime="0.00" timeLoss="215.78" rerouteNo="0" devices="tripinfo_2" vType="DEFAULT_VEHTYPE" speedFactor="1.01" vaporized=""/>
    <tripinfo id="12" depart="22.00" departLane="51o_0" departPos="5.10" departSpeed="0.00" departDelay="0.52" arrival="252.00" arrivalLane="52i_0" arrivalPos="10.00" arrivalSpeed="20.09" duration="230.00" routeLength="615.10" waitingTime="186.00" waitingCount="1" stopTime="0.00" timeLoss="199.08" rerouteNo="0" devices="tripinfo_12" vType="DEFAULT_VEHTYPE" speedFactor="1.05" vaporized=""/>
    <tripinfo id="28" depart="50.00" departLane="51o_0" departPos="5.10" departSpeed="0.00" departDelay="-0.12" arrival="252.00" arrivalLane="52i_1" arrivalPos="10.00" arrivalSpeed="21.53" duration="202.00" routeLength="615.10" waitingTime="156.00" waitingCount="2" stopTime="0.00" timeLoss="173.72" rerouteNo="0" devices="tripinfo_28" vType="DEFAULT_VEHTYPE" speedFactor="1.13" vaporized=""/>
    <tripinfo id="3" depart="7.00" departLane="51o_0" departPos="5.10" departSpeed="0.00" departDelay="1.63" arrival="253.00" arrivalLane="53i_0" arrivalPos="10.00" arrivalSpeed="19.86" duration="246.00" routeLength="596.93" waitingTime="201.00" waitingCount="1" stopTime="0.00" timeLoss="216.03" rerouteNo="0" devices="tripinfo_3" vType="DEFAULT_VEHTYPE" speedFactor="1.08" vaporized=""/>
    <tripinfo id="1" depart="1.00" departLane="51o_0" departPos="5.10" departSpeed="0.00" departDelay="-0.79" arrival="254.00" arrivalLane="54i_0" arrivalPos="10.00" arrivalSpeed="17.47" duration="253.00" routeLength="617.75" waitingTime="204.00" waitingCount="1" stopTime="0.00" timeLoss="217.54" rerouteNo="0" devices="tripinfo_1" vType="DEFAULT_VEHTYPE" speedFactor="0.94" vaporized=""/>
    <tripinfo id="25" depart="44.00" departLane="51o_0" departPos="5.10" departSpeed="0.00" departDelay="-0.75" arrival="258.00" arrivalLane="54i_0" arrivalPos="10.00" arrivalSpeed="16.86" duration="214.00" routeLength="617.75" waitingTime="163.00" waitingCount="1" stopTime="0.00" timeLoss="176.02" rerouteNo="0" devices="tripinfo_25" vType="DEFAULT_VEHTYPE" speedFactor="0.87" vaporized=""/>
    <tripinfo id="39" depart="69.00" departLane="51o_0" departPos="5.10" departSpeed="0.00" departDelay="-0.81" arrival="258.00" arrivalLane="52i_1" arrivalPos="10.00" arrivalSpeed="17.46" duration="189.00" routeLength="615.10" waitingTime="136.00" waitingCount="1" stopTime="0.00" timeLoss="152.88" rerouteNo="0" devices="tripinfo_39" vType="DEFAULT_VEHTYPE" speedFactor="0.90" vaporized=""/>
    <tripinfo id="29" depart="53.00" departLane="51o_0" departPos="5.10" departSpeed="0.00" departDelay="1.09" arrival="259.00" arrivalLane="52i_2" arrivalPos="10.00" arrivalSpeed="17.29" duration="206.00" routeLength="615.10" waitingTime="156.00" waitingCount="1" stopTime="0.00" timeLoss="171.14" rerouteNo="0" devices="tripinfo_29" vType="DEFAULT_VEHTYPE" speedFactor="0.93" vaporized=""/>
    <tripinfo id="5" depart="10.00" departLane="51o_0" departPos="5.10" departSpeed="0.00" departDelay="1.05" arrival="260.00" arrivalLane="53i_0" arrivalPos="10.00" arrivalSpeed="15.20" duration="250.00" routeLength="596.93" waitingTime="197.00" waitingCount="1" stopTime="0.00" timeLoss="211.46" rerouteNo="0" devices="tripinfo_5" vType="DEFAULT_VEHTYPE" speedFactor="0.83" vaporized=""/>
    <tripinfo id="65" depart="118.00" departLane="51o_0" departPos="5.10" departSpeed="0.00" departDelay="1.65" arrival="260.00" arrivalLane="52i_1" arrivalPos="10.00" arrivalSpeed="17.08" duration="142.00" routeLength="615.10" waitingTime="92.00" waitingCount="1" stopTime="0.00" timeLoss="105.30" rerouteNo="0" devices="tripinfo_65" vType="DEFAULT_VEHTYPE" speedFactor="0.88" vaporized=""/>
    <tripinfo id="11" depart="19.00" departLane="51o_0" departPos="5.10" departSpeed="0.00" departDelay="-0.69" arrival="261.00" arrivalLane="53i_0" arrivalPos="10.00" arrivalSpeed="17.97" duration="242.00" routeLength="596.93" waitingTime="193.00" waitingCount="1" stopTime="0.00" timeLoss="211.08" rerouteNo="0" devices="tripinfo_11" vType="DEFAULT_VEHTYPE" speedFactor="1.03" vaporized=""/>
    <tripinfo id="64" depart="115.00" departLane="51o_0" departPos="5.10" departSpeed="0.00" departDelay="0.44" arrival="261.00" arrivalLane="52i_1" arrivalPos="10.00" arrivalSpeed="17.87" duration="146.00" routeLength="615.10" waitingTime="93.00" waitingCount="2" stopTime="0.00" timeLoss="111.93" rerouteNo="0" devices="tripinfo_64" vType="DEFAULT_VEHTYPE" speedFactor="0.94" vaporized=""/>
    <tripinfo id="32" depart="57.00" departLane="51o_0" departPos="5.10" departSpeed="0.00" departDelay="-0.28" arrival="263.00" arrivalLane="53i_0" arrivalPos="10.00" arrivalSpeed="19.12" duration="206.00" routeLength="596.93" waitingTime="155.00" waitingCount="1" stopTime="0.00" timeLoss="174.26" rerouteNo="0" devices="tripinfo_32" vType="DEFAULT_VEHTYPE" speedFactor="1.01" vaporized=""/>
    <tripinfo id="71" depart="128.00" departLane="1i_0" departPos="5.10" departSpeed="0.00" departDelay="0.91" arrival="263.00" arrivalLane="52i_1" arrivalPos="10.00" arrivalSpeed="18.31" duration="135.00" routeLength="605.00" waitingTime="87.00" waitingCount="1" stopTime="0.00" timeLoss="102.32" rerouteNo="0" devices="tripinfo_71" vType="DEFAULT_VEHTYPE" speedFactor="0.97" vaporized=""/>
    <tripinfo id="49" depart="87.00" departLane="51o_0" departPos="5.10" departSpeed="0.00" departDelay="-0.71" arrival="264.00" arrivalLane="54i_0" arrivalPos="10.00" arrivalSpeed="15.36" duration="177.00" routeLength="617.75" waitingTime="123.00" waitingCount="1" stopTime="0.00" timeLoss="137.70" rerouteNo="0" devices="tripinfo_49" vType="DEFAULT_VEHTYPE" speedFactor="0.85" vaporized=""/>
    <tripinfo id="40" depart="72.00" departLane="51o_0" departPos="5.10" departSpeed="0.00" departDelay="0.40" arrival="265.00" arrivalLane="53i_0" arrivalPos="10.00" arrivalSpeed="19.81" duration="193.00" routeLength="596.93" waitingTime="142.00" waitingCount="1" stopTime="0.00" timeLoss="161.64" rerouteNo="0" devices="tripinfo_40" vType="DEFAULT_VEHTYPE" speedFactor="1.03" vaporized=""/>
    <tripinfo id="54" depart="96.00" departLane="51o_0" departPos="5.10" departSpeed="0.00" departDelay="-0.66" arrival="265.00" arrivalLane="54i_0" arrivalPos="10.00" arrivalSpeed="18.27" duration="169.00" routeLength="617.75" waitingTime="118.00" waitingCount="1" stopTime="0.00" timeLoss="136.01" rerouteNo="0" devices="tripinfo_54" vType="DEFAULT_VEHTYPE" speedFactor="1.00" vaporized=""/>
    <tripinfo id="60" depart="107.00" departLane="51o_0" departPos="5.10" departSpeed="0.00" departDelay="-0.40" arrival="266.00" arrivalLane="53i_0" arrivalPos="10.00" arrivalSpeed="20.64" duration="159.00" routeLength="596.93" waitingTime="109.00" waitingCount="1" stopTime="0.00" timeLoss="130.11" rerouteNo="0" devices="tripinfo_60" vType="DEFAULT_VEHTYPE" speedFactor="1.08" vaporized=""/>
    <tripinfo id="66" depart="121.00" departLane="51o_0" departPos="5.10" departSpeed="0.00" departDelay="2.86" arrival="267.00" arrivalLane="54i_0" arrivalPos="10.00" arrivalSpeed="17.22" duration="146.00" routeLength="617.75" waitingTime="91.00" waitingCount="1" stopTime="0.00" timeLoss="109.23" rerouteNo="0" devices="tripinfo_66" vType="DEFAULT_VEHTYPE" speedFactor="0.91" vaporized=""/>
    <tripinfo id="125" depart="224.00" departLane="51o_0" departPos="5.10" departSpeed="0.00" departDelay="0.25" arrival="267.00" arrivalLane="52i_1" arrivalPos="10.00" arrivalSpeed="21.96" duration="43.00" routeLength="615.10" waitingTime="0.00" waitingCount="0" stopTime="0.00" timeLoss="15.33" rerouteNo="0" devices="tripinfo_125" vType="DEFAULT_VEHTYPE" speedFactor="1.15" vaporized=""/>
    <tripinfo id="70" depart="125.00" departLane="51o_0" departPos="5.10" departSpeed="0.00" departDelay="-0.30" arrival="268.00" arrivalLane="54i_0" arrivalPos="10.00" arrivalSpeed="19.22" duration="143.00" routeLength="617.75" waitingTime="90.00" waitingCount="1" stopTime="0.00" timeLoss="110.80" rerouteNo="0" devices="tripinfo_70" vType="DEFAULT_VEHTYPE" speedFactor="1.02" vaporized=""/>
    <tripinfo id="63" depart="112.00" departLane="51o_0" departPos="5.10" departSpeed="0.00" departDelay="-0.77" arrival="270.00" arrivalLane="53i_0" arrivalPos="10.00" arrivalSpeed="18.47" duration="158.00" routeLength="596.93" waitingTime="104.00" waitingCount="1" stopTime="0.00" timeLoss="125.53" rerouteNo="0" devices="tripinfo_63" vType="DEFAULT_VEHTYPE" speedFactor="0.99" vaporized=""/>
    <tripinfo id="86" depart="153.00" departLane="51o_0" departPos="5.10" departSpeed="0.00" departDelay="-0.94" arrival="270.00" arrivalLane="54i_0" arrivalPos="10.00" arrivalSpeed="18.70" duration="117.00" routeLength="617.75" waitingTime="64.00" waitingCount="1" stopTime="0.00" timeLoss="83.82" rerouteNo="0" devices="tripinfo_86" vType="DEFAULT_VEHTYPE" speedFactor="1.00" vaporized=""/>
    <tripinfo id="77" depart="137.00" departLane="51o_0" departPos="5.10" departSpeed="0.00" departDelay="-0.83" arrival="272.00" arrivalLane="53i_0" arrivalPos="10.00" arrivalSpeed="18.92" duration="135.00" routeLength="596.93" waitingTime="82.00" waitingCount="1" stopTime="0.00" timeLoss="103.03" rerouteNo="0" devices="tripinfo_77" vType="DEFAULT_VEHTYPE" speedFactor="0.98" vaporized=""/>
    <tripinfo id="89" depart="159.00" departLane="51o_0" departPos="5.10" departSpeed="0.00" departDelay="-0.31" arrival="273.00" arrivalLane="54i_0" arrivalPos="10.00" arrivalSpeed="19.60" duration="114.00" routeLength="617.75" waitingTime="61.00" waitingCount="1" stopTime="0.00" timeLoss="81.00" rerouteNo="0" devices="tripinfo_89" vType="DEFAULT_VEHTYPE" speedFactor="1.02" vaporized=""/>
    <tripinfo id="96" depart="171.00" departLane="51o_0" departPos="5.10" departSpeed="0.00" departDelay="-0.84" arrival="275.00" arrivalLane="53i_0" arrivalPos="10.00" arrivalSpeed="18.81" duration="104.00" routeLength="596.93" waitingTime="50.00" waitingCount="1" stopTime="0.00" timeLoss="71.92" rerouteNo="0" devices="tripinfo_96" vType="DEFAULT_VEHTYPE" speedFactor="1.01" vaporized=""/>
    <tripinfo id="97" depart="174.00" departLane="51o_0" departPos="5.10" departSpeed="0.00" departDelay="0.37" arrival="276.00" arrivalLane="54i_0" arrivalPos="10.00" arrivalSpeed="16.79" duration="102.00" routeLength="617.75" waitingTime="46.00" waitingCount="1" stopTime="0.00" timeLoss="65.14" rerouteNo="0" devices="tripinfo_97" vType="DEFAULT_VEHTYPE" speedFactor="0.91" vaporized=""/>
    <tripinfo id="99" depart="177.00" departLane="51o_0" departPos="5.10" departSpeed="0.00" departDelay="-0.21" arrival="277.00" arrivalLane="54i_0" arrivalPos="10.00" arrivalSpeed="17.77" duration="100.00" routeLength="617.75" waitingTime="46.00" waitingCount="1" stopTime="0.00" timeLoss="70.07" rerouteNo="0" devices="tripinfo_99" vType="DEFAULT_VEHTYPE" speedFactor="1.10" vaporized=""/>