<?xml version="1.0" encoding="UTF-8"?>

<!-- generated on Fri Nov  8 01:56:32 2019 by Eclipse SUMO Version 1.2.0
<configuration xmlns:xsi="http://www.w3.org/2001/XMLSchema-instance" xsi:noNamespaceSchemaLocation="http://sumo.dlr.de/xsd/sumoConfiguration.xsd">

    <input>
        <net-file value="simulation_files/sumocfgs/../networks/isolated_3_lanes_4_stages.net.xml"/>
        <route-files value="simulation_files/sumocfgs/../routes/isolated_3_lanes_40p.rou.xml"/>
    </input>

    <output>
        <tripinfo-output value="./output/exp21_rf_40p/delay_pwtl__0_tripinfo_isolated.xml"/>
    </output>

    <time>
        <begin value="0"/>
        <step-length value="1"/>
    </time>

    <report>
        <verbose value="true"/>
        <no-step-log value="true"/>
    </report>

    <gui_only>
        <tracker-interval value="1"/>
    </gui_only>

</configuration>
-->

<tripinfos xmlns:xsi="http://www.w3.org/2001/XMLSchema-instance" xsi:noNamespaceSchemaLocation="http://sumo.dlr.de/xsd/tripinfo_file.xsd">
    <tripinfo id="8" depart="15.00" departLane="52o_0" departPos="5.10" departSpeed="0.00" departDelay="0.68" arrival="55.00" arrivalLane="51i_1" arrivalPos="10.00" arrivalSpeed="17.36" duration="40.00" routeLength="615.10" waitingTime="0.00" waitingCount="0" stopTime="0.00" timeLoss="5.42" rerouteNo="0" devices="tripinfo_8" vType="DEFAULT_VEHTYPE" speedFactor="0.94" vaporized=""/>
    <tripinfo id="7" depart="12.00" departLane="52o_0" departPos="5.10" departSpeed="0.00" departDelay="-0.53" arrival="57.00" arrivalLane="54i_0" arrivalPos="10.00" arrivalSpeed="16.24" duration="45.00" routeLength="596.93" waitingTime="0.00" waitingCount="0" stopTime="0.00" timeLoss="8.52" rerouteNo="0" devices="tripinfo_7" vType="DEFAULT_VEHTYPE" speedFactor="0.89" vaporized=""/>
    <tripinfo id="13" depart="23.00" departLane="52o_0" departPos="5.10" departSpeed="0.00" departDelay="-0.27" arrival="57.00" arrivalLane="51i_0" arrivalPos="10.00" arrivalSpeed="21.05" duration="34.00" routeLength="615.10" waitingTime="0.00" waitingCount="0" stopTime="0.00" timeLoss="5.45" rerouteNo="0" devices="tripinfo_13" vType="DEFAULT_VEHTYPE" speedFactor="1.12" vaporized=""/>
    <tripinfo id="16" depart="28.00" departLane="52o_0" departPos="5.10" departSpeed="0.00" departDelay="-0.64" arrival="70.00" arrivalLane="51i_0" arrivalPos="10.00" arrivalSpeed="16.06" duration="42.00" routeLength="615.10" waitingTime="0.00" waitingCount="0" stopTime="0.00" timeLoss="5.14" rerouteNo="0" devices="tripinfo_16" vType="DEFAULT_VEHTYPE" speedFactor="0.88" vaporized=""/>
    <tripinfo id="19" depart="34.00" departLane="53o_0" departPos="5.10" departSpeed="0.00" departDelay="-0.01" arrival="72.00" arrivalLane="54i_0" arrivalPos="10.00" arrivalSpeed="22.26" duration="38.00" routeLength="615.10" waitingTime="0.00" waitingCount="0" stopTime="0.00" timeLoss="9.96" rerouteNo="0" devices="tripinfo_19" vType="DEFAULT_VEHTYPE" speedFactor="1.16" vaporized=""/>
    <tripinfo id="0" depart="0.00" departLane="53o_0" departPos="5.10" departSpeed="0.00" departDelay="0.00" arrival="76.00" arrivalLane="51i_0" arrivalPos="10.00" arrivalSpeed="20.38" duration="76.00" routeLength="617.75" waitingTime="33.00" waitingCount="1" stopTime="0.00" timeLoss="44.19" rerouteNo="0" devices="tripinfo_0" vType="DEFAULT_VEHTYPE" speedFactor="1.06" vaporized=""/>
    <tripinfo id="4" depart="7.00" departLane="53o_0" departPos="5.10" departSpeed="0.00" departDelay="-0.16" arrival="79.00" arrivalLane="51i_0" arrivalPos="10.00" arrivalSpeed="19.04" duration="72.00" routeLength="617.75" waitingTime="27.00" waitingCount="1" stopTime="0.00" timeLoss="39.54" rerouteNo="0" devices="tripinfo_4" vType="DEFAULT_VEHTYPE" speedFactor="1.03" vaporized=""/>
    <tripinfo id="14" depart="25.00" departLane="53o_0" departPos="5.10" departSpeed="0.00" departDelay="-0.06" arrival="82.00" arrivalLane="51i_0" arrivalPos="10.00" arrivalSpeed="18.66" duration="57.00" routeLength="617.75" waitingTime="10.00" waitingCount="1" stopTime="0.00" timeLoss="23.58" rerouteNo="0" devices="tripinfo_14" vType="DEFAULT_VEHTYPE" speedFactor="0.99" vaporized=""/>
    <tripinfo id="15" depart="28.00" departLane="53o_0" departPos="5.10" departSpeed="0.00" departDelay="1.15" arrival="86.00" arrivalLane="51i_0" arrivalPos="10.00" arrivalSpeed="17.67" duration="58.00" routeLength="617.75" waitingTime="8.00" waitingCount="1" stopTime="0.00" timeLoss="22.24" rerouteNo="0" devices="tripinfo_15" vType="DEFAULT_VEHTYPE" speedFactor="0.93" vaporized=""/>
    <tripinfo id="23" depart="41.00" departLane="53o_0" departPos="5.10" departSpeed="0.00" departDelay="-0.17" arrival="89.00" arrivalLane="51i_0" arrivalPos="10.00" arrivalSpeed="16.91" duration="48.00" routeLength="617.75" waitingTime="0.00" waitingCount="0" stopTime="0.00" timeLoss="10.39" rerouteNo="0" devices="tripinfo_23" vType="DEFAULT_VEHTYPE" speedFactor="0.89" vaporized=""/>
    <tripinfo id="24" depart="44.00" departLane="53o_0" departPos="5.10" departSpeed="0.00" departDelay="1.04" arrival="93.00" arrivalLane="51i_0" arrivalPos="10.00" arrivalSpeed="15.15" duration="49.00" routeLength="617.75" waitingTime="0.00" waitingCount="0" stopTime="0.00" timeLoss="8.96" rerouteNo="0" devices="tripinfo_24" vType="DEFAULT_VEHTYPE" speedFactor="0.83" vaporized=""/>
    <tripinfo id="31" depart="55.00" departLane="53o_0" departPos="5.10" departSpeed="0.00" departDelay="-0.49" arrival="93.00" arrivalLane="52i_0" arrivalPos="10.00" arrivalSpeed="21.76" duration="38.00" routeLength="596.93" waitingTime="0.00" waitingCount="0" stopTime="0.00" timeLoss="9.70" rerouteNo="0" devices="tripinfo_31" vType="DEFAULT_VEHTYPE" speedFactor="1.15" vaporized=""/>
    <tripinfo id="35" depart="62.00" departLane="53o_0" departPos="5.10" departSpeed="0.00" departDelay="-0.65" arrival="102.00" arrivalLane="52i_0" arrivalPos="10.00" arrivalSpeed="18.69" duration="40.00" routeLength="596.93" waitingTime="0.00" waitingCount="0" stopTime="0.00" timeLoss="9.19" rerouteNo="0" devices="tripinfo_35" vType="DEFAULT_VEHTYPE" speedFactor="1.02" vaporized=""/>
    <tripinfo id="41" depart="73.00" departLane="53o_0" departPos="5.10" departSpeed="0.00" departDelay="-0.39" arrival="115.00" arrivalLane="52i_0" arrivalPos="10.00" arrivalSpeed="18.06" duration="42.00" routeLength="596.93" waitingTime="0.00" waitingCount="0" stopTime="0.00" timeLoss="8.49" rerouteNo="0" devices="tripinfo_41" vType="DEFAULT_VEHTYPE" speedFactor="0.96" vaporized=""/>
    <tripinfo id="44" depart="78.00" departLane="53o_0" departPos="5.10" departSpeed="0.00" departDelay="-0.76" arrival="118.00" arrivalLane="52i_0" arrivalPos="10.00" arrivalSpeed="19.86" duration="40.00" routeLength="596.93" waitingTime="0.00" waitingCount="0" stopTime="0.00" timeLoss="9.64" rerouteNo="0" devices="tripinfo_44" vType="DEFAULT_VEHTYPE" speedFactor="1.04" vaporized=""/>
    <tripinfo id="2" depart="4.00" departLane="51o_0" departPos="5.10" departSpeed="0.00" departDelay="0.42" arrival="122.00" arrivalLane="53i_0" arrivalPos="10.00" arrivalSpeed="19.14" duration="118.00" routeLength="596.93" waitingTime="73.00" waitingCount="1" stopTime="0.00" timeLoss="86.91" rerouteNo="0" devices="tripinfo_2" vType="DEFAULT_VEHTYPE" speedFactor="1.01" vaporized=""/>
    <tripinfo id="12" depart="22.00" departLane="51o_0" departPos="5.10" departSpeed="0.00" departDelay="0.52" arrival="123.00" arrivalLane="52i_0" arrivalPos="10.00" arrivalSpeed="19.28" duration="101.00" routeLength="615.10" waitingTime="57.00" waitingCount="1" stopTime="0.00" timeLoss="70.16" rerouteNo="0" devices="tripinfo_12" vType="DEFAULT_VEHTYPE" speedFactor="1.05" vaporized=""/>
    <tripinfo id="28" depart="50.00" departLane="51o_0" departPos="5.10" departSpeed="0.00" departDelay="-0.12" arrival="123.00" arrivalLane="52i_1" arrivalPos="10.00" arrivalSpeed="20.72" duration="73.00" routeLength="615.10" waitingTime="27.00" waitingCount="2" stopTime="0.00" timeLoss="44.87" rerouteNo="0" devices="tripinfo_28" vType="DEFAULT_VEHTYPE" speedFactor="1.13" vaporized=""/>
    <tripinfo id="3" depart="7.00" departLane="51o_0" departPos="5.10" departSpeed="0.00" departDelay="1.63" arrival="124.00" arrivalLane="53i_0" arrivalPos="10.00" arrivalSpeed="20.59" duration="117.00" routeLength="596.93" waitingTime="72.00" waitingCount="1" stopTime="0.00" timeLoss="87.53" rerouteNo="0" devices="tripinfo_3" vType="DEFAULT_VEHTYPE" speedFactor="1.08" vaporized=""/>
    <tripinfo id="1" depart="1.00" departLane="51o_0" departPos="5.10" departSpeed="0.00" departDelay="-0.79" arrival="125.00" arrivalLane="54i_0" arrivalPos="10.00" arrivalSpeed="17.72" duration="124.00" routeLength="617.75" waitingTime="75.00" waitingCount="1" stopTime="0.00" timeLoss="89.09" rerouteNo="0" devices="tripinfo_1" vType="DEFAULT_VEHTYPE" speedFactor="0.94" vaporized=""/>
    <tripinfo id="39" depart="69.00" departLane="51o_0" departPos="5.10" departSpeed="0.00" departDelay="-0.81" arrival="128.00" arrivalLane="52i_1" arrivalPos="10.00" arrivalSpeed="17.27" duration="59.00" routeLength="615.10" waitingTime="7.00" waitingCount="1" stopTime="0.00" timeLoss="23.64" rerouteNo="0" devices="tripinfo_39" vType="DEFAULT_VEHTYPE" speedFactor="0.90" vaporized=""/>
    <tripinfo id="25" depart="44.00" departLane="51o_0" departPos="5.10" departSpeed="0.00" departDelay="-0.75" arrival="129.00" arrivalLane="54i_0" arrivalPos="10.00" arrivalSpeed="16.63" duration="85.00" routeLength="617.75" waitingTime="34.00" waitingCount="1" stopTime="0.00" timeLoss="46.95" rerouteNo="0" devices="tripinfo_25" vType="DEFAULT_VEHTYPE" speedFactor="0.87" vaporized=""/>
    <tripinfo id="29" depart="53.00" departLane="51o_0" departPos="5.10" departSpeed="0.00" departDelay="1.09" arrival="129.00" arrivalLane="52i_2" arrivalPos="10.00" arrivalSpeed="17.29" duration="76.00" routeLength="615.10" waitingTime="27.00" waitingCount="1" stopTime="0.00" timeLoss="41.49" rerouteNo="0" devices="tripinfo_29" vType="DEFAULT_VEHTYPE" speedFactor="0.93" vaporized=""/>
    <tripinfo id="5" depart="10.00" departLane="51o_0" departPos="5.10" departSpeed="0.00" departDelay="1.05" arrival="131.00" arrivalLane="53i_0" arrivalPos="10.00" arrivalSpeed="15.53" duration="121.00" routeLength="596.93" waitingTime="68.00" waitingCount="1" stopTime="0.00" timeLoss="82.63" rerouteNo="0" devices="tripinfo_5" vType="DEFAULT_VEHTYPE" speedFactor="0.83" vaporized=""/>
    <tripinfo id="11" depart="19.00" departLane="51o_0" departPos="5.10" departSpeed="0.00" departDelay="-0.69" arrival="133.00" arrivalLane="53i_0" arrivalPos="10.00" arrivalSpeed="19.20" duration="114.00" routeLength="596.93" waitingTime="64.00" waitingCount="1" stopTime="0.00" timeLoss="82.95" rerouteNo="0" devices="tripinfo_11" vType="DEFAULT_VEHTYPE" speedFactor="1.03" vaporized=""/>
    <tripinfo id="32" depart="57.00" departLane="51o_0" departPos="5.10" departSpeed="0.00" departDelay="-0.28" arrival="134.00" arrivalLane="53i_0" arrivalPos="10.00" arrivalSpeed="19.36" duration="77.00" routeLength="596.93" waitingTime="27.00" waitingCount="1" stopTime="0.00" timeLoss="45.12" rerouteNo="0" devices="tripinfo_32" vType="DEFAULT_VEHTYPE" speedFactor="1.01" vaporized=""/>
    <tripinfo id="49" depart="87.00" departLane="51o_0" departPos="5.10" departSpeed="0.00" departDelay="-0.71" arrival="134.00" arrivalLane="54i_0" arrivalPos="10.00" arrivalSpeed="15.34" duration="47.00" routeLength="617.75" waitingTime="0.00" waitingCount="0" stopTime="0.00" timeLoss="8.29" rerouteNo="0" devices="tripinfo_49" vType="DEFAULT_VEHTYPE" speedFactor="0.85" vaporized=""/>
    <tripinfo id="40" depart="72.00" departLane="51o_0" departPos="5.10" departSpeed="0.00" departDelay="0.40" arrival="136.00" arrivalLane="53i_0" arrivalPos="10.00" arrivalSpeed="19.10" duration="64.00" routeLength="596.93" waitingTime="13.00" waitingCount="1" stopTime="0.00" timeLoss="32.68" rerouteNo="0" devices="tripinfo_40" vType="DEFAULT_VEHTYPE" speedFactor="1.03" vaporized=""/>
    <tripinfo id="54" depart="96.00" departLane="51o_0" departPos="5.10" departSpeed="0.00" departDelay="-0.66" arrival="136.00" arrivalLane="54i_0" arrivalPos="10.00" arrivalSpeed="18.42" duration="40.00" routeLength="617.75" waitingTime="0.00" waitingCount="0" stopTime="0.00" timeLoss="6.83" rerouteNo="0" devices="tripinfo_54" vType="DEFAULT_VEHTYPE" speedFactor="1.00" vaporized=""/>
    <tripinfo id="60" depart="107.00" departLane="51o_0" departPos="5.10" departSpeed="0.00" departDelay="-0.40" arrival="145.00" arrivalLane="53i_0" arrivalPos="10.00" arrivalSpeed="20.84" duration="38.00" routeLength="596.93" waitingTime="0.00" waitingCount="0" stopTime="0.00" timeLoss="8.39" rerouteNo="0" devices="tripinfo_60" vType="DEFAULT_VEHTYPE" speedFactor="1.08" vaporized=""/>
    <tripinfo id="63" depart="112.00" departLane="51o_0" departPos="5.10" departSpeed="0.00" departDelay="-0.77" arrival="154.00" arrivalLane="53i_0" arrivalPos="10.00" arrivalSpeed="19.14" duration="42.00" routeLength="596.93" waitingTime="0.00" waitingCount="0" stopTime="0.00" timeLoss="9.54" rerouteNo="0" devices="tripinfo_63" vType="DEFAULT_VEHTYPE" speedFactor="0.99" vaporized=""/>
    <tripinfo id="64" depart="115.00" departLane="51o_0" departPos="5.10" departSpeed="0.00" departDelay="0.44" arrival="154.00" arrivalLane="52i_1" arrivalPos="10.00" arrivalSpeed="18.19" duration="39.00" routeLength="615.10" waitingTime="0.00" waitingCount="0" stopTime="0.00" timeLoss="4.86" rerouteNo="0" devices="tripinfo_64" vType="DEFAULT_VEHTYPE" speedFactor="0.94" vaporized=""/>
    <tripinfo id="65" depart="118.00" departLane="51o_0" departPos="5.10" departSpeed="0.00" departDelay="1.65" arrival="159.00" arrivalLane="52i_0" arrivalPos="10.00" arrivalSpeed="16.21" duration="41.00" routeLength="615.10" waitingTime="0.00" waitingCount="0" stopTime="0.00" timeLoss="5.04" rerouteNo="0" devices="tripinfo_65" vType="DEFAULT_VEHTYPE" speedFactor="0.88" vaporized=""/>
    <tripinfo id="66" depart="121.00" departLane="51o_0" departPos="5.10" departSpeed="0.00" departDelay="2.86" arrival="164.00" arrivalLane="54i_0" arrivalPos="10.00" arrivalSpeed="16.90" duration="43.00" routeLength="617.75" waitingTime="0.00" waitingCount="0" stopTime="0.00" timeLoss="6.83" rerouteNo="0" devices="tripinfo_66" vType="DEFAULT_VEHTYPE" speedFactor="0.91" vaporized=""/>
    <tripinfo id="70" depart="125.00" departLane="51o_0" departPos="5.10" departSpeed="0.00" departDelay="-0.30" arrival="166.00" arrivalLane="54i_0" arrivalPos="10.00" arrivalSpeed="19.49" duration="41.00" routeLength="617.75" waitingTime="0.00" waitingCount="0" stopTime="0.00" timeLoss="8.71" rerouteNo="0" devices="tripinfo_70" vType="DEFAULT_VEHTYPE" speedFactor="1.02" vaporized=""/>
    <tripinfo id="71" depart="129.00" departLane="1i_0" departPos="5.10" departSpeed="0.00" departDelay="1.91" arrival="167.00" arrivalLane="52i_0" arrivalPos="10.00" arrivalSpeed="17.69" duration="38.00" routeLength="605.00" waitingTime="0.00" waitingCount="0" stopTime="0.00" timeLoss="5.21" rerouteNo="0" devices="tripinfo_71" vType="DEFAULT_VEHTYPE" speedFactor="0.97" vaporized=""/>
    <tripinfo id="77" depart="137.00" departLane="51o_0" departPos="5.10" departSpeed="0.00" departDelay="-0.83" arrival="178.00" arrivalLane="53i_0" arrivalPos="10.00" arrivalSpeed="18.90" duration="41.00" routeLength="596.93" waitingTime="0.00" waitingCount="0" stopTime="0.00" timeLoss="8.94" rerouteNo="0" devices="tripinfo_77" vType="DEFAULT_VEHTYPE" speedFactor="0.98" vaporized=""/>
    <tripinfo id="6" depart="10.00" departLane="4i_0" departPos="5.10" departSpeed="0.00" departDelay="-0.74" arrival="184.00" arrivalLane="51i_0" arrivalPos="10.00" arrivalSpeed="19.48" duration="174.00" routeLength="586.83" waitingTime="130.00" waitingCount="1" stopTime="0.00" timeLoss="143.96" rerouteNo="0" devices="tripinfo_6" vType="DEFAULT_VEHTYPE" speedFactor="1.05" vaporized=""/>
    <tripinfo id="21" depart="37.00" departLane="54o_0" departPos="5.10" departSpeed="0.00" departDelay="-0.59" arrival="185.00" arrivalLane="53i_1" arrivalPos="10.00" arrivalSpeed="19.18" duration="148.00" routeLength="615.10" waitingTime="103.00" waitingCount="1" stopTime="0.00" timeLoss="115.95" rerouteNo="0" devices="tripinfo_21" vType="DEFAULT_VEHTYPE" speedFactor="1.01" vaporized=""/>
    <tripinfo id="30" depart="53.00" departLane="54o_0" departPos="5.10" departSpeed="0.00" departDelay="-0.70" arrival="186.00" arrivalLane="51i_0" arrivalPos="10.00" arrivalSpeed="21.82" duration="133.00" routeLength="596.93" waitingTime="90.00" waitingCount="1" stopTime="0.00" timeLoss="105.77" rerouteNo="0" devices="tripinfo_30" vType="DEFAULT_VEHTYPE" speedFactor="1.18" vaporized=""/>
    <tripinfo id="9" depart="16.00" departLane="54o_0" departPos="5.10" departSpeed="0.00" departDelay="-0.11" arrival="187.00" arrivalLane="2o_0" arrivalPos="286.40" arrivalSpeed="16.54" duration="171.00" routeLength="607.65" waitingTime="122.00" waitingCount="1" stopTime="0.00" timeLoss="133.25" rerouteNo="0" devices="tripinfo_9" vType="DEFAULT_VEHTYPE" speedFactor="0.86" vaporized=""/>
    <tripinfo id="36" depart="64.00" departLane="54o_0" departPos="5.10" departSpeed="0.00" departDelay="-0.44" arrival="187.00" arrivalLane="53i_1" arrivalPos="10.00" arrivalSpeed="17.67" duration="123.00" routeLength="615.10" waitingTime="73.00" waitingCount="1" stopTime="0.00" timeLoss="90.32" rerouteNo="0" devices="tripinfo_36" vType="DEFAULT_VEHTYPE" speedFactor="0.97" vaporized=""/>
    <tripinfo id="42" depart="75.00" departLane="54o_0" departPos="5.10" departSpeed="0.00" departDelay="-0.18" arrival="188.00" arrivalLane="51i_0" arrivalPos="10.00" arrivalSpeed="20.03" duration="113.00" routeLength="596.93" waitingTime="68.00" waitingCount="1" stopTime="0.00" timeLoss="83.74" rerouteNo="0" devices="tripinfo_42" vType="DEFAULT_VEHTYPE" speedFactor="1.09" vaporized=""/>
    <tripinfo id="10" depart="19.00" departLane="54o_0" departPos="5.10" departSpeed="0.00" departDelay="1.10" arrival="189.00" arrivalLane="52i_0" arrivalPos="10.00" arrivalSpeed="20.16" duration="170.00" routeLength="617.75" waitingTime="121.00" waitingCount="1" stopTime="0.00" timeLoss="139.72" rerouteNo="0" devices="tripinfo_10" vType="DEFAULT_VEHTYPE" speedFactor="1.09" vaporized=""/>
    <tripinfo id="59" depart="106.00" departLane="54o_0" departPos="5.10" departSpeed="0.00" departDelay="0.39" arrival="189.00" arrivalLane="53i_1" arrivalPos="10.00" arrivalSpeed="17.74" duration="83.00" routeLength="615.10" waitingTime="31.00" waitingCount="1" stopTime="0.00" timeLoss="50.10" rerouteNo="0" devices="tripinfo_59" vType="DEFAULT_VEHTYPE" speedFactor="0.97" vaporized=""/>
    <tripinfo id="45" depart="80.00" departLane="54o_0" departPos="5.10" departSpeed="0.00" departDelay="-0.55" arrival="191.00" arrivalLane="51i_0" arrivalPos="10.00" arrivalSpeed="20.29" duration="111.00" routeLength="596.93" waitingTime="64.00" waitingCount="1" stopTime="0.00" timeLoss="81.13" rerouteNo="0" devices="tripinfo_45" vType="DEFAULT_VEHTYPE" speedFactor="1.09" vaporized=""/>
    <tripinfo id="61" depart="109.00" departLane="54o_0" departPos="5.10" departSpeed="0.00" departDelay="-0.19" arrival="191.00" arrivalLane="53i_1" arrivalPos="10.00" arrivalSpeed="20.57" duration="82.00" routeLength="615.10" waitingTime="29.00" waitingCount="2" stopTime="0.00" timeLoss="52.89" rerouteNo="0" devices="tripinfo_61" vType="DEFAULT_VEHTYPE" speedFactor="1.12" vaporized=""/>
    <tripinfo id="17" depart="30.00" departLane="54o_0" departPos="5.10" departSpeed="0.00" departDelay="-0.43" arrival="192.00" arrivalLane="52i_0" arrivalPos="10.00" arrivalSpeed="18.25" duration="162.00" routeLength="617.75" waitingTime="113.00" waitingCount="1" stopTime="0.00" timeLoss="126.49" rerouteNo="0" devices="tripinfo_17" vType="DEFAULT_VEHTYPE" speedFactor="0.94" vaporized=""/>
    <tripinfo id="22" depart="40.00" departLane="54o_0" departPos="5.10" departSpeed="0.00" departDelay="0.62" arrival="193.00" arrivalLane="52i_0" arrivalPos="10.00" arrivalSpeed="18.77" duration="153.00" routeLength="617.75" waitingTime="103.00" waitingCount="1" stopTime="0.00" timeLoss="119.17" rerouteNo="0" devices="tripinfo_22" vType="DEFAULT_VEHTYPE" speedFactor="0.98" vaporized=""/>
    <tripinfo id="55" depart="98.00" departLane="54o_0" departPos="5.10" departSpeed="0.00" departDelay="-0.45" arrival="194.00" arrivalLane="51i_0" arrivalPos="10.00" arrivalSpeed="18.62" duration="96.00" routeLength="596.93" waitingTime="48.00" waitingCount="1" stopTime="0.00" timeLoss="63.97" rerouteNo="0" devices="tripinfo_55" vType="DEFAULT_VEHTYPE" speedFactor="1.00" vaporized=""/>
    <tripinfo id="33" depart="59.00" departLane="54o_0" departPos="5.10" departSpeed="0.00" departDelay="-0.07" arrival="195.00" arrivalLane="52i_0" arrivalPos="10.00" arrivalSpeed="22.41" duration="136.00" routeLength="617.75" waitingTime="89.00" waitingCount="1" stopTime="0.00" timeLoss="107.48" rerouteNo="0" devices="tripinfo_33" vType="DEFAULT_VEHTYPE" speedFactor="1.17" vaporized=""/>
    <tripinfo id="88" depart="157.00" departLane="54o_0" departPos="5.10" departSpeed="0.00" departDelay="-0.52" arrival="196.00" arrivalLane="53i_1" arrivalPos="10.00" arrivalSpeed="18.45" duration="39.00" routeLength="615.10" waitingTime="0.00" waitingCount="0" stopTime="0.00" timeLoss="7.48" rerouteNo="0" devices="tripinfo_88" vType="DEFAULT_VEHTYPE" speedFactor="1.01" vaporized=""/>
    <tripinfo id="58" depart="103.00" departLane="54o_0" departPos="5.10" departSpeed="0.00" departDelay="-0.82" arrival="197.00" arrivalLane="51i_0" arrivalPos="10.00" arrivalSpeed="19.76" duration="94.00" routeLength="596.93" waitingTime="44.00" waitingCount="1" stopTime="0.00" timeLoss="61.99" rerouteNo="0" devices="tripinfo_58" vType="DEFAULT_VEHTYPE" speedFactor="1.02" vaporized=""/>
    <tripinfo id="76" depart="136.00" departLane="54o_0" departPos="5.10" departSpeed="0.00" departDelay="-0.04" arrival="198.00" arrivalLane="51i_0" arrivalPos="10.00" arrivalSpeed="18.80" duration="62.00" routeLength="596.93" waitingTime="12.00" waitingCount="1" stopTime="0.00" timeLoss="31.61" rerouteNo="0" devices="tripinfo_76" vType="DEFAULT_VEHTYPE" speedFactor="1.03" vaporized=""/>
    <tripinfo id="48" depart="85.00" departLane="54o_0" departPos="5.10" departSpeed="0.00" departDelay="-0.92" arrival="200.00" arrivalLane="52i_0" arrivalPos="10.00" arrivalSpeed="17.04" duration="115.00" routeLength="617.75" waitingTime="59.00" waitingCount="1" stopTime="0.00" timeLoss="77.45" rerouteNo="0" devices="tripinfo_48" vType="DEFAULT_VEHTYPE" speedFactor="0.88" vaporized=""/>
    <tripinfo id="85" depart="152.00" departLane="54o_0" departPos="5.10" departSpeed="0.00" departDelay="-0.15" arrival="202.00" arrivalLane="51i_0" arrivalPos="10.00" arrivalSpeed="18.89" duration="50.00" routeLength="596.93" waitingTime="0.00" waitingCount="0" stopTime="0.00" timeLoss="17.28" rerouteNo="0" devices="tripinfo_85" vType="DEFAULT_VEHTYPE" speedFactor="0.98" vaporized=""/>
    <tripinfo id="50" depart="89.00" departLane="54o_0" departPos="5.10" departSpeed="0.00" departDelay="-0.50" arrival="203.00" arrivalLane="52i_0" arrivalPos="10.00" arrivalSpeed="16.29" duration="114.00" routeLength="617.75" waitingTime="57.00" waitingCount="1" stopTime="0.00" timeLoss="75.72" rerouteNo="0" devices="tripinfo_50" vType="DEFAULT_VEHTYPE" speedFactor="0.85" vaporized=""/>
    <tripinfo id="80" depart="143.00" departLane="54o_0" departPos="5.10" departSpeed="0.00" departDelay="-0.20" arrival="205.00" arrivalLane="52i_0" arrivalPos="10.00" arrivalSpeed="19.48" duration="62.00" routeLength="617.75" waitingTime="6.00" waitingCount="1" stopTime="0.00" timeLoss="29.70" rerouteNo="0" devices="tripinfo_80" vType="DEFAULT_VEHTYPE" speedFactor="1.03" vaporized=""/>
    <tripinfo id="82" depart="146.00" departLane="54o_0" departPos="5.10" departSpeed="0.00" departDelay="-0.78" arrival="206.00" arrivalLane="52i_0" arrivalPos="10.00" arrivalSpeed="18.89" duration="60.00" routeLength="617.75" waitingTime="4.00" waitingCount="1" stopTime="0.00" timeLoss="27.73" rerouteNo="0" devices="tripinfo_82" vType="DEFAULT_VEHTYPE" speedFactor="1.02" vaporized=""/>
    <tripinfo id="83" depart="149.00" departLane="54o_0" departPos="5.10" departSpeed="0.00" departDelay="0.43" arrival="209.00" arrivalLane="52i_0" arrivalPos="10.00" arrivalSpeed="17.90" duration="60.00" routeLength="617.75" waitingTime="3.00" waitingCount="1" stopTime="0.00" timeLoss="25.99" rerouteNo="0" devices="tripinfo_83" vType="DEFAULT_VEHTYPE" speedFactor="0.97" vaporized=""/>
    <tripinfo id="87" depart="155.00" departLane="54o_0" departPos="5.10" departSpeed="0.00" departDelay="-0.73" arrival="212.00" arrivalLane="52i_0" arrivalPos="10.00" arrivalSpeed="19.22" duration="57.00" routeLength="617.75" waitingTime="0.00" waitingCount="0" stopTime="0.00" timeLoss="24.98" rerouteNo="0" devices="tripinfo_87" vType="DEFAULT_VEHTYPE" speedFactor="1.04" vaporized=""/>
    <tripinfo id="102" depart="182.00" departLane="54o_0" departPos="5.10" departSpeed="0.00" departDelay="-0.58" arrival="221.00" arrivalLane="53i_0" arrivalPos="10.00" arrivalSpeed="17.64" duration="39.00" routeLength="615.10" waitingTime="0.00" waitingCount="0" stopTime="0.00" timeLoss="5.61" rerouteNo="0" devices="tripinfo_102" vType="DEFAULT_VEHTYPE" speedFactor="0.97" vaporized=""/>
    <tripinfo id="107" depart="191.00" departLane="54o_0" departPos="5.10" departSpeed="0.00" departDelay="-0.53" arrival="228.00" arrivalLane="53i_1" arrivalPos="10.00" arrivalSpeed="19.87" duration="37.00" routeLength="615.10" waitingTime="0.00" waitingCount="0" stopTime="0.00" timeLoss="6.05" rerouteNo="0" devices="tripinfo_107" vType="DEFAULT_VEHTYPE" speedFactor="1.03" vaporized=""/>
    <tripinfo id="104" depart="186.00" departLane="54o_0" departPos="5.10" departSpeed="0.00" departDelay="-0.16" arrival="230.00" arrivalLane="51i_0" arrivalPos="10.00" arrivalSpeed="17.03" duration="44.00" routeLength="596.93" waitingTime="0.00" waitingCount="0" stopTime="0.00" timeLoss="8.22" rerouteNo="0" devices="tripinfo_104" vType="DEFAULT_VEHTYPE" speedFactor="0.89" vaporized=""/>
    <tripinfo id="110" depart="196.00" departLane="54o_0" departPos="5.10" departSpeed="0.00" departDelay="-0.90" arrival="235.00" arrivalLane="53i_0" arrivalPos="10.00" arrivalSpeed="17.27" duration="39.00" routeLength="615.10" waitingTime="0.00" waitingCount="0" stopTime="0.00" timeLoss="4.85" rerouteNo="0" devices="tripinfo_110" vType="DEFAULT_VEHTYPE" speedFactor="0.93" vaporized=""/>
    <tripinfo id="113" depart="202.00" departLane="54o_0" departPos="5.10" departSpeed="0.00" departDelay="-0.27" arrival="243.00" arrivalLane="52i_0" arrivalPos="10.00" arrivalSpeed="18.36" duration="41.00" routeLength="617.75" waitingTime="0.00" waitingCount="0" stopTime="0.00" timeLoss="8.11" rerouteNo="0" devices="tripinfo_113" vType="DEFAULT_VEHTYPE" speedFactor="1.01" vaporized=""/>
    <tripinfo id="115" depart="205.00" departLane="54o_0" departPos="5.10" departSpeed="0.00" departDelay="-0.85" arrival="248.00" arrivalLane="51i_0" arrivalPos="10.00" arrivalSpeed="17.17" duration="43.00" routeLength="596.93" waitingTime="0.00" waitingCount="0" stopTime="0.00" timeLoss="8.91" rerouteNo="0" devices="tripinfo_115" vType="DEFAULT_VEHTYPE" speedFactor="0.92" vaporized=""/>
    <tripinfo id="117" depart="209.00" departLane="54o_0" departPos="5.10" departSpeed="0.00" departDelay="-0.43" arrival="250.00" arrivalLane="51i_0" arrivalPos="10.00" arrivalSpeed="18.57" duration="41.00" routeLength="596.93" waitingTime="0.00" waitingCount="0" stopTime="0.00" timeLoss="9.48" rerouteNo="0" devices="tripinfo_117" vType="DEFAULT_VEHTYPE" speedFactor="1.00" vaporized=""/>
    <tripinfo id="118" depart="212.00" departLane="54o_0" departPos="5.10" departSpeed="0.00" departDelay="0.78" arrival="254.00" arrivalLane="52i_0" arrivalPos="10.00" arrivalSpeed="18.46" duration="42.00" routeLength="617.75" waitingTime="0.00" waitingCount="0" stopTime="0.00" timeLoss="7.99" rerouteNo="0" devices="tripinfo_118" vType="DEFAULT_VEHTYPE" speedFactor="0.99" vaporized=""/>
    <tripinfo id="120" depart="215.00" departLane="54o_0" departPos="5.10" departSpeed="0.00" departDelay="0.20" arrival="257.00" arrivalLane="52i_0" arrivalPos="10.00" arrivalSpeed="18.14" duration="42.00" routeLength="617.75" waitingTime="0.00" waitingCount="0" stopTime="0.00" timeLoss="7.05" rerouteNo="0" devices="tripinfo_120" vType="DEFAULT_VEHTYPE" speedFactor="0.94" vaporized=""/>
    <tripinfo id="27" depart="49.00" departLane="52o_0" departPos="5.10" departSpeed="0.00" departDelay="0.67" arrival="262.00" arrivalLane="51i_2" arrivalPos="10.00" arrivalSpeed="17.68" duration="213.00" routeLength="615.10" waitingTime="168.00" waitingCount="1" stopTime="0.00" timeLoss="179.61" rerouteNo="0" devices="tripinfo_27" vType="DEFAULT_VEHTYPE" speedFactor="0.95" vaporized=""/>
    <tripinfo id="18" depart="32.00" departLane="52o_0" departPos="5.10" departSpeed="0.00" departDelay="-0.22" arrival="263.00" arrivalLane="51i_0" arrivalPos="10.00" arrivalSpeed="16.56" duration="231.00" routeLength="615.10" waitingTime="185.00" waitingCount="1" stopTime="0.00" timeLoss="197.21" rerouteNo="0" devices="tripinfo_18" vType="DEFAULT_VEHTYPE" speedFactor="0.94" vaporized=""/>
    <tripinfo id="20" depart="35.00" departLane="52o_0" departPos="5.10" departSpeed="0.00" departDelay="-0.80" arrival="263.00" arrivalLane="54i_0" arrivalPos="10.00" arrivalSpeed="19.51" duration="228.00" routeLength="596.93" waitingTime="184.00" waitingCount="1" stopTime="0.00" timeLoss="196.62" rerouteNo="0" devices="tripinfo_20" vType="DEFAULT_VEHTYPE" speedFactor="1.02" vaporized=""/>
    <tripinfo id="26" depart="46.00" departLane="52o_0" departPos="5.10" departSpeed="0.00" departDelay="-0.54" arrival="263.00" arrivalLane="51i_1" arrivalPos="10.00" arrivalSpeed="17.74" duration="217.00" routeLength="615.10" waitingTime="170.00" waitingCount="1" stopTime="0.00" timeLoss="182.43" rerouteNo="0" devices="tripinfo_26" vType="DEFAULT_VEHTYPE" speedFactor="0.92" vaporized=""/>