<?xml version="1.0" encoding="UTF-8"?>

<!-- generated on Thu Nov  7 22:57:26 2019 by Eclipse SUMO Version 1.2.0
<configuration xmlns:xsi="http://www.w3.org/2001/XMLSchema-instance" xsi:noNamespaceSchemaLocation="http://sumo.dlr.de/xsd/sumoConfiguration.xsd">

    <input>
        <net-file value="simulation_files/sumocfgs/../networks/isolated_3_lanes_4_stages.net.xml"/>
        <route-files value="simulation_files/sumocfgs/../routes/isolated_3_lanes_40p.rou.xml"/>
    </input>

    <output>
        <tripinfo-output value="./output/exp21_rf_20p/ql__6_tripinfo_isolated.xml"/>
    </output>

    <time>
        <begin value="0"/>
        <step-length value="1"/>
    </time>

    <report>
        <verbose value="true"/>
        <no-step-log value="true"/>
    </report>

    <gui_only>
        <tracker-interval value="1"/>
    </gui_only>

</configuration>
-->

<tripinfos xmlns:xsi="http://www.w3.org/2001/XMLSchema-instance" xsi:noNamespaceSchemaLocation="http://sumo.dlr.de/xsd/tripinfo_file.xsd">
    <tripinfo id="8" depart="15.00" departLane="52o_0" departPos="5.10" departSpeed="0.00" departDelay="0.68" arrival="55.00" arrivalLane="51i_1" arrivalPos="10.00" arrivalSpeed="17.36" duration="40.00" routeLength="615.10" waitingTime="0.00" waitingCount="0" stopTime="0.00" timeLoss="5.42" rerouteNo="0" devices="tripinfo_8" vType="DEFAULT_VEHTYPE" speedFactor="0.94" vaporized=""/>
    <tripinfo id="7" depart="12.00" departLane="52o_0" departPos="5.10" departSpeed="0.00" departDelay="-0.53" arrival="57.00" arrivalLane="54i_0" arrivalPos="10.00" arrivalSpeed="16.24" duration="45.00" routeLength="596.93" waitingTime="0.00" waitingCount="0" stopTime="0.00" timeLoss="8.52" rerouteNo="0" devices="tripinfo_7" vType="DEFAULT_VEHTYPE" speedFactor="0.89" vaporized=""/>
    <tripinfo id="13" depart="23.00" departLane="52o_0" departPos="5.10" departSpeed="0.00" departDelay="-0.27" arrival="57.00" arrivalLane="51i_0" arrivalPos="10.00" arrivalSpeed="20.74" duration="34.00" routeLength="615.10" waitingTime="0.00" waitingCount="0" stopTime="0.00" timeLoss="5.47" rerouteNo="0" devices="tripinfo_13" vType="DEFAULT_VEHTYPE" speedFactor="1.12" vaporized=""/>
    <tripinfo id="16" depart="28.00" departLane="52o_0" departPos="5.10" departSpeed="0.00" departDelay="-0.64" arrival="70.00" arrivalLane="51i_0" arrivalPos="10.00" arrivalSpeed="16.06" duration="42.00" routeLength="615.10" waitingTime="0.00" waitingCount="0" stopTime="0.00" timeLoss="5.12" rerouteNo="0" devices="tripinfo_16" vType="DEFAULT_VEHTYPE" speedFactor="0.88" vaporized=""/>
    <tripinfo id="18" depart="32.00" departLane="52o_0" departPos="5.10" departSpeed="0.00" departDelay="-0.22" arrival="71.00" arrivalLane="51i_0" arrivalPos="10.00" arrivalSpeed="17.28" duration="39.00" routeLength="615.10" waitingTime="0.00" waitingCount="0" stopTime="0.00" timeLoss="4.94" rerouteNo="0" devices="tripinfo_18" vType="DEFAULT_VEHTYPE" speedFactor="0.94" vaporized=""/>
    <tripinfo id="20" depart="35.00" departLane="52o_0" departPos="5.10" departSpeed="0.00" departDelay="-0.80" arrival="75.00" arrivalLane="54i_0" arrivalPos="10.00" arrivalSpeed="19.54" duration="40.00" routeLength="596.93" waitingTime="0.00" waitingCount="0" stopTime="0.00" timeLoss="8.71" rerouteNo="0" devices="tripinfo_20" vType="DEFAULT_VEHTYPE" speedFactor="1.02" vaporized=""/>
    <tripinfo id="26" depart="46.00" departLane="52o_0" departPos="5.10" departSpeed="0.00" departDelay="-0.54" arrival="86.00" arrivalLane="51i_0" arrivalPos="10.00" arrivalSpeed="16.79" duration="40.00" routeLength="615.10" waitingTime="0.00" waitingCount="0" stopTime="0.00" timeLoss="5.42" rerouteNo="0" devices="tripinfo_26" vType="DEFAULT_VEHTYPE" speedFactor="0.92" vaporized=""/>
    <tripinfo id="27" depart="49.00" departLane="52o_0" departPos="5.10" departSpeed="0.00" departDelay="0.67" arrival="88.00" arrivalLane="51i_0" arrivalPos="10.00" arrivalSpeed="18.08" duration="39.00" routeLength="615.10" waitingTime="0.00" waitingCount="0" stopTime="0.00" timeLoss="5.57" rerouteNo="0" devices="tripinfo_27" vType="DEFAULT_VEHTYPE" speedFactor="0.95" vaporized=""/>
    <tripinfo id="37" depart="66.00" departLane="52o_0" departPos="5.10" departSpeed="0.00" departDelay="-0.23" arrival="99.00" arrivalLane="51i_0" arrivalPos="10.00" arrivalSpeed="21.83" duration="33.00" routeLength="615.10" waitingTime="0.00" waitingCount="0" stopTime="0.00" timeLoss="5.94" rerouteNo="0" devices="tripinfo_37" vType="DEFAULT_VEHTYPE" speedFactor="1.18" vaporized=""/>
    <tripinfo id="34" depart="60.00" departLane="52o_0" departPos="5.10" departSpeed="0.00" departDelay="-0.86" arrival="101.00" arrivalLane="53i_0" arrivalPos="10.00" arrivalSpeed="18.73" duration="41.00" routeLength="617.75" waitingTime="0.00" waitingCount="0" stopTime="0.00" timeLoss="7.04" rerouteNo="0" devices="tripinfo_34" vType="DEFAULT_VEHTYPE" speedFactor="0.99" vaporized=""/>
    <tripinfo id="38" depart="69.00" departLane="52o_0" departPos="5.10" departSpeed="0.00" departDelay="0.98" arrival="107.00" arrivalLane="54i_0" arrivalPos="10.00" arrivalSpeed="21.30" duration="38.00" routeLength="596.93" waitingTime="0.00" waitingCount="0" stopTime="0.00" timeLoss="9.23" rerouteNo="0" devices="tripinfo_38" vType="DEFAULT_VEHTYPE" speedFactor="1.10" vaporized=""/>
    <tripinfo id="43" depart="76.00" departLane="52o_0" departPos="5.10" departSpeed="0.00" departDelay="-0.97" arrival="116.00" arrivalLane="54i_0" arrivalPos="10.00" arrivalSpeed="19.84" duration="40.00" routeLength="596.93" waitingTime="0.00" waitingCount="0" stopTime="0.00" timeLoss="9.15" rerouteNo="0" devices="tripinfo_43" vType="DEFAULT_VEHTYPE" speedFactor="1.04" vaporized=""/>
    <tripinfo id="46" depart="82.00" departLane="52o_0" departPos="5.10" departSpeed="0.00" departDelay="-0.34" arrival="120.00" arrivalLane="51i_0" arrivalPos="10.00" arrivalSpeed="18.95" duration="38.00" routeLength="615.10" waitingTime="0.00" waitingCount="0" stopTime="0.00" timeLoss="6.00" rerouteNo="0" devices="tripinfo_46" vType="DEFAULT_VEHTYPE" speedFactor="1.00" vaporized=""/>
    <tripinfo id="19" depart="34.00" departLane="53o_0" departPos="5.10" departSpeed="0.00" departDelay="-0.01" arrival="131.00" arrivalLane="54i_0" arrivalPos="10.00" arrivalSpeed="22.11" duration="97.00" routeLength="615.10" waitingTime="54.00" waitingCount="1" stopTime="0.00" timeLoss="69.19" rerouteNo="0" devices="tripinfo_19" vType="DEFAULT_VEHTYPE" speedFactor="1.16" vaporized=""/>
    <tripinfo id="0" depart="0.00" departLane="53o_0" departPos="5.10" departSpeed="0.00" departDelay="0.00" arrival="133.00" arrivalLane="51i_0" arrivalPos="10.00" arrivalSpeed="19.44" duration="133.00" routeLength="617.75" waitingTime="90.00" waitingCount="1" stopTime="0.00" timeLoss="101.66" rerouteNo="0" devices="tripinfo_0" vType="DEFAULT_VEHTYPE" speedFactor="1.06" vaporized=""/>
    <tripinfo id="31" depart="55.00" departLane="53o_0" departPos="5.10" departSpeed="0.00" departDelay="-0.49" arrival="134.00" arrivalLane="52i_0" arrivalPos="10.00" arrivalSpeed="21.22" duration="79.00" routeLength="596.93" waitingTime="35.00" waitingCount="1" stopTime="0.00" timeLoss="50.77" rerouteNo="0" devices="tripinfo_31" vType="DEFAULT_VEHTYPE" speedFactor="1.15" vaporized=""/>
    <tripinfo id="4" depart="7.00" departLane="53o_0" departPos="5.10" departSpeed="0.00" departDelay="-0.16" arrival="137.00" arrivalLane="51i_0" arrivalPos="10.00" arrivalSpeed="19.81" duration="130.00" routeLength="617.75" waitingTime="84.00" waitingCount="1" stopTime="0.00" timeLoss="97.39" rerouteNo="0" devices="tripinfo_4" vType="DEFAULT_VEHTYPE" speedFactor="1.03" vaporized=""/>
    <tripinfo id="35" depart="62.00" departLane="53o_0" departPos="5.10" departSpeed="0.00" departDelay="-0.65" arrival="138.00" arrivalLane="52i_0" arrivalPos="10.00" arrivalSpeed="18.55" duration="76.00" routeLength="596.93" waitingTime="29.00" waitingCount="1" stopTime="0.00" timeLoss="44.25" rerouteNo="0" devices="tripinfo_35" vType="DEFAULT_VEHTYPE" speedFactor="1.02" vaporized=""/>
    <tripinfo id="14" depart="25.00" departLane="53o_0" departPos="5.10" departSpeed="0.00" departDelay="-0.06" arrival="139.00" arrivalLane="51i_0" arrivalPos="10.00" arrivalSpeed="18.28" duration="114.00" routeLength="617.75" waitingTime="67.00" waitingCount="1" stopTime="0.00" timeLoss="80.56" rerouteNo="0" devices="tripinfo_14" vType="DEFAULT_VEHTYPE" speedFactor="0.99" vaporized=""/>
    <tripinfo id="41" depart="73.00" departLane="53o_0" departPos="5.10" departSpeed="0.00" departDelay="-0.39" arrival="141.00" arrivalLane="52i_0" arrivalPos="10.00" arrivalSpeed="17.44" duration="68.00" routeLength="596.93" waitingTime="20.00" waitingCount="1" stopTime="0.00" timeLoss="34.44" rerouteNo="0" devices="tripinfo_41" vType="DEFAULT_VEHTYPE" speedFactor="0.96" vaporized=""/>
    <tripinfo id="56" depart="100.00" departLane="53o_0" departPos="5.10" departSpeed="0.00" departDelay="-0.24" arrival="141.00" arrivalLane="54i_1" arrivalPos="10.00" arrivalSpeed="16.39" duration="41.00" routeLength="615.10" waitingTime="0.00" waitingCount="0" stopTime="0.00" timeLoss="5.71" rerouteNo="0" devices="tripinfo_56" vType="DEFAULT_VEHTYPE" speedFactor="0.90" vaporized=""/>
    <tripinfo id="44" depart="78.00" departLane="53o_0" departPos="5.10" departSpeed="0.00" departDelay="-0.76" arrival="142.00" arrivalLane="52i_0" arrivalPos="10.00" arrivalSpeed="19.16" duration="64.00" routeLength="596.93" waitingTime="15.00" waitingCount="1" stopTime="0.00" timeLoss="33.82" rerouteNo="0" devices="tripinfo_44" vType="DEFAULT_VEHTYPE" speedFactor="1.04" vaporized=""/>
    <tripinfo id="15" depart="28.00" departLane="53o_0" departPos="5.10" departSpeed="0.00" departDelay="1.15" arrival="143.00" arrivalLane="51i_0" arrivalPos="10.00" arrivalSpeed="17.67" duration="115.00" routeLength="617.75" waitingTime="65.00" waitingCount="1" stopTime="0.00" timeLoss="79.11" rerouteNo="0" devices="tripinfo_15" vType="DEFAULT_VEHTYPE" speedFactor="0.93" vaporized=""/>
    <tripinfo id="57" depart="103.00" departLane="53o_0" departPos="5.10" departSpeed="0.00" departDelay="0.97" arrival="144.00" arrivalLane="52i_0" arrivalPos="10.00" arrivalSpeed="22.16" duration="41.00" routeLength="596.93" waitingTime="0.00" waitingCount="0" stopTime="0.00" timeLoss="12.89" rerouteNo="0" devices="tripinfo_57" vType="DEFAULT_VEHTYPE" speedFactor="1.14" vaporized=""/>
    <tripinfo id="23" depart="41.00" departLane="53o_0" departPos="5.10" departSpeed="0.00" departDelay="-0.17" arrival="146.00" arrivalLane="51i_0" arrivalPos="10.00" arrivalSpeed="16.91" duration="105.00" routeLength="617.75" waitingTime="52.00" waitingCount="1" stopTime="0.00" timeLoss="67.34" rerouteNo="0" devices="tripinfo_23" vType="DEFAULT_VEHTYPE" speedFactor="0.89" vaporized=""/>
    <tripinfo id="24" depart="44.00" departLane="53o_0" departPos="5.10" departSpeed="0.00" departDelay="1.04" arrival="150.00" arrivalLane="51i_0" arrivalPos="10.00" arrivalSpeed="15.60" duration="106.00" routeLength="617.75" waitingTime="48.00" waitingCount="1" stopTime="0.00" timeLoss="65.97" rerouteNo="0" devices="tripinfo_24" vType="DEFAULT_VEHTYPE" speedFactor="0.83" vaporized=""/>
    <tripinfo id="47" depart="84.00" departLane="53o_0" departPos="5.10" departSpeed="0.00" departDelay="-0.13" arrival="151.00" arrivalLane="51i_1" arrivalPos="10.00" arrivalSpeed="17.04" duration="67.00" routeLength="617.75" waitingTime="13.00" waitingCount="1" stopTime="0.00" timeLoss="30.20" rerouteNo="0" devices="tripinfo_47" vType="DEFAULT_VEHTYPE" speedFactor="0.90" vaporized=""/>
    <tripinfo id="62" depart="110.00" departLane="53o_0" departPos="5.10" departSpeed="0.00" departDelay="-0.98" arrival="153.00" arrivalLane="51i_0" arrivalPos="10.00" arrivalSpeed="18.70" duration="43.00" routeLength="617.75" waitingTime="0.00" waitingCount="0" stopTime="0.00" timeLoss="9.74" rerouteNo="0" devices="tripinfo_62" vType="DEFAULT_VEHTYPE" speedFactor="1.02" vaporized=""/>
    <tripinfo id="67" depart="119.00" departLane="53o_0" departPos="5.10" departSpeed="0.00" departDelay="-0.93" arrival="159.00" arrivalLane="54i_0" arrivalPos="10.00" arrivalSpeed="17.01" duration="40.00" routeLength="615.10" waitingTime="0.00" waitingCount="0" stopTime="0.00" timeLoss="4.96" rerouteNo="0" devices="tripinfo_67" vType="DEFAULT_VEHTYPE" speedFactor="0.91" vaporized=""/>
    <tripinfo id="69" depart="123.00" departLane="53o_0" departPos="5.10" departSpeed="0.00" departDelay="-0.51" arrival="163.00" arrivalLane="52i_0" arrivalPos="10.00" arrivalSpeed="18.97" duration="40.00" routeLength="596.93" waitingTime="0.00" waitingCount="0" stopTime="0.00" timeLoss="9.05" rerouteNo="0" devices="tripinfo_69" vType="DEFAULT_VEHTYPE" speedFactor="1.02" vaporized=""/>
    <tripinfo id="74" depart="132.00" departLane="53o_0" departPos="5.10" departSpeed="0.00" departDelay="-0.46" arrival="174.00" arrivalLane="51i_0" arrivalPos="10.00" arrivalSpeed="18.47" duration="42.00" routeLength="617.75" waitingTime="0.00" waitingCount="0" stopTime="0.00" timeLoss="7.32" rerouteNo="0" devices="tripinfo_74" vType="DEFAULT_VEHTYPE" speedFactor="0.96" vaporized=""/>
    <tripinfo id="79" depart="142.00" departLane="53o_0" departPos="5.10" departSpeed="0.00" departDelay="0.59" arrival="177.00" arrivalLane="54i_0" arrivalPos="10.00" arrivalSpeed="21.02" duration="35.00" routeLength="615.10" waitingTime="0.00" waitingCount="0" stopTime="0.00" timeLoss="5.10" rerouteNo="0" devices="tripinfo_79" vType="DEFAULT_VEHTYPE" speedFactor="1.09" vaporized=""/>
    <tripinfo id="78" depart="139.00" departLane="53o_0" departPos="5.10" departSpeed="0.00" departDelay="-0.62" arrival="181.00" arrivalLane="51i_0" arrivalPos="10.00" arrivalSpeed="18.38" duration="42.00" routeLength="617.75" waitingTime="0.00" waitingCount="0" stopTime="0.00" timeLoss="8.56" rerouteNo="0" devices="tripinfo_78" vType="DEFAULT_VEHTYPE" speedFactor="1.01" vaporized=""/>
    <tripinfo id="81" depart="145.00" departLane="53o_0" departPos="5.10" departSpeed="0.00" departDelay="0.01" arrival="182.00" arrivalLane="54i_0" arrivalPos="10.00" arrivalSpeed="18.34" duration="37.00" routeLength="615.10" waitingTime="0.00" waitingCount="0" stopTime="0.00" timeLoss="5.27" rerouteNo="0" devices="tripinfo_81" vType="DEFAULT_VEHTYPE" speedFactor="1.00" vaporized=""/>
    <tripinfo id="12" depart="22.00" departLane="51o_0" departPos="5.10" departSpeed="0.00" departDelay="0.52" arrival="191.00" arrivalLane="52i_0" arrivalPos="10.00" arrivalSpeed="20.26" duration="169.00" routeLength="615.10" waitingTime="126.00" waitingCount="1" stopTime="0.00" timeLoss="138.56" rerouteNo="0" devices="tripinfo_12" vType="DEFAULT_VEHTYPE" speedFactor="1.05" vaporized=""/>
    <tripinfo id="2" depart="4.00" departLane="51o_0" departPos="5.10" departSpeed="0.00" departDelay="0.42" arrival="192.00" arrivalLane="53i_0" arrivalPos="10.00" arrivalSpeed="18.89" duration="188.00" routeLength="596.93" waitingTime="142.00" waitingCount="1" stopTime="0.00" timeLoss="156.45" rerouteNo="0" devices="tripinfo_2" vType="DEFAULT_VEHTYPE" speedFactor="1.01" vaporized=""/>
    <tripinfo id="28" depart="50.00" departLane="51o_0" departPos="5.10" departSpeed="0.00" departDelay="-0.12" arrival="192.00" arrivalLane="52i_1" arrivalPos="10.00" arrivalSpeed="21.96" duration="142.00" routeLength="615.10" waitingTime="96.00" waitingCount="2" stopTime="0.00" timeLoss="113.45" rerouteNo="0" devices="tripinfo_28" vType="DEFAULT_VEHTYPE" speedFactor="1.13" vaporized=""/>
    <tripinfo id="3" depart="7.00" departLane="51o_0" departPos="5.10" departSpeed="0.00" departDelay="1.63" arrival="193.00" arrivalLane="53i_0" arrivalPos="10.00" arrivalSpeed="20.92" duration="186.00" routeLength="596.93" waitingTime="141.00" waitingCount="1" stopTime="0.00" timeLoss="156.53" rerouteNo="0" devices="tripinfo_3" vType="DEFAULT_VEHTYPE" speedFactor="1.08" vaporized=""/>
    <tripinfo id="1" depart="1.00" departLane="51o_0" departPos="5.10" departSpeed="0.00" departDelay="-0.79" arrival="194.00" arrivalLane="54i_0" arrivalPos="10.00" arrivalSpeed="17.07" duration="193.00" routeLength="617.75" waitingTime="144.00" waitingCount="1" stopTime="0.00" timeLoss="157.67" rerouteNo="0" devices="tripinfo_1" vType="DEFAULT_VEHTYPE" speedFactor="0.94" vaporized=""/>
    <tripinfo id="25" depart="44.00" departLane="51o_0" departPos="5.10" departSpeed="0.00" departDelay="-0.75" arrival="197.00" arrivalLane="54i_0" arrivalPos="10.00" arrivalSpeed="16.55" duration="153.00" routeLength="617.75" waitingTime="103.00" waitingCount="1" stopTime="0.00" timeLoss="115.17" rerouteNo="0" devices="tripinfo_25" vType="DEFAULT_VEHTYPE" speedFactor="0.87" vaporized=""/>
    <tripinfo id="29" depart="53.00" departLane="51o_0" departPos="5.10" departSpeed="0.00" departDelay="1.09" arrival="197.00" arrivalLane="52i_2" arrivalPos="10.00" arrivalSpeed="17.00" duration="144.00" routeLength="615.10" waitingTime="96.00" waitingCount="1" stopTime="0.00" timeLoss="109.89" rerouteNo="0" devices="tripinfo_29" vType="DEFAULT_VEHTYPE" speedFactor="0.93" vaporized=""/>
    <tripinfo id="39" depart="69.00" departLane="51o_0" departPos="5.10" departSpeed="0.00" departDelay="-0.81" arrival="197.00" arrivalLane="52i_1" arrivalPos="10.00" arrivalSpeed="17.43" duration="128.00" routeLength="615.10" waitingTime="76.00" waitingCount="1" stopTime="0.00" timeLoss="92.08" rerouteNo="0" devices="tripinfo_39" vType="DEFAULT_VEHTYPE" speedFactor="0.90" vaporized=""/>
    <tripinfo id="65" depart="118.00" departLane="51o_0" departPos="5.10" departSpeed="0.00" departDelay="1.65" arrival="199.00" arrivalLane="52i_1" arrivalPos="10.00" arrivalSpeed="16.54" duration="81.00" routeLength="615.10" waitingTime="34.00" waitingCount="1" stopTime="0.00" timeLoss="44.43" rerouteNo="0" devices="tripinfo_65" vType="DEFAULT_VEHTYPE" speedFactor="0.88" vaporized=""/>
    <tripinfo id="5" depart="10.00" departLane="51o_0" departPos="5.10" departSpeed="0.00" departDelay="1.05" arrival="200.00" arrivalLane="53i_0" arrivalPos="10.00" arrivalSpeed="16.10" duration="190.00" routeLength="596.93" waitingTime="137.00" waitingCount="1" stopTime="0.00" timeLoss="151.44" rerouteNo="0" devices="tripinfo_5" vType="DEFAULT_VEHTYPE" speedFactor="0.83" vaporized=""/>
    <tripinfo id="11" depart="19.00" departLane="51o_0" departPos="5.10" departSpeed="0.00" departDelay="-0.69" arrival="200.00" arrivalLane="53i_1" arrivalPos="10.00" arrivalSpeed="19.49" duration="181.00" routeLength="596.93" waitingTime="133.00" waitingCount="1" stopTime="0.00" timeLoss="150.16" rerouteNo="0" devices="tripinfo_11" vType="DEFAULT_VEHTYPE" speedFactor="1.03" vaporized=""/>
    <tripinfo id="64" depart="115.00" departLane="51o_0" departPos="5.10" departSpeed="0.00" departDelay="0.44" arrival="200.00" arrivalLane="52i_1" arrivalPos="10.00" arrivalSpeed="18.04" duration="85.00" routeLength="615.10" waitingTime="34.00" waitingCount="2" stopTime="0.00" timeLoss="51.09" rerouteNo="0" devices="tripinfo_64" vType="DEFAULT_VEHTYPE" speedFactor="0.94" vaporized=""/>
    <tripinfo id="32" depart="57.00" departLane="51o_0" departPos="5.10" departSpeed="0.00" departDelay="-0.28" arrival="202.00" arrivalLane="53i_0" arrivalPos="10.00" arrivalSpeed="19.37" duration="145.00" routeLength="596.93" waitingTime="95.00" waitingCount="1" stopTime="0.00" timeLoss="113.17" rerouteNo="0" devices="tripinfo_32" vType="DEFAULT_VEHTYPE" speedFactor="1.01" vaporized=""/>
    <tripinfo id="71" depart="128.00" departLane="1i_0" departPos="5.10" departSpeed="0.00" departDelay="0.91" arrival="202.00" arrivalLane="52i_1" arrivalPos="10.00" arrivalSpeed="18.49" duration="74.00" routeLength="605.00" waitingTime="23.00" waitingCount="1" stopTime="0.00" timeLoss="41.42" rerouteNo="0" devices="tripinfo_71" vType="DEFAULT_VEHTYPE" speedFactor="0.97" vaporized=""/>
    <tripinfo id="49" depart="87.00" departLane="51o_0" departPos="5.10" departSpeed="0.00" departDelay="-0.71" arrival="203.00" arrivalLane="54i_0" arrivalPos="10.00" arrivalSpeed="15.75" duration="116.00" routeLength="617.75" waitingTime="63.00" waitingCount="1" stopTime="0.00" timeLoss="76.67" rerouteNo="0" devices="tripinfo_49" vType="DEFAULT_VEHTYPE" speedFactor="0.85" vaporized=""/>
    <tripinfo id="40" depart="72.00" departLane="51o_0" departPos="5.10" departSpeed="0.00" departDelay="0.40" arrival="204.00" arrivalLane="53i_0" arrivalPos="10.00" arrivalSpeed="18.85" duration="132.00" routeLength="596.93" waitingTime="82.00" waitingCount="1" stopTime="0.00" timeLoss="101.06" rerouteNo="0" devices="tripinfo_40" vType="DEFAULT_VEHTYPE" speedFactor="1.03" vaporized=""/>
    <tripinfo id="54" depart="96.00" departLane="51o_0" departPos="5.10" departSpeed="0.00" departDelay="-0.66" arrival="204.00" arrivalLane="54i_0" arrivalPos="10.00" arrivalSpeed="17.07" duration="108.00" routeLength="617.75" waitingTime="58.00" waitingCount="1" stopTime="0.00" timeLoss="75.35" rerouteNo="0" devices="tripinfo_54" vType="DEFAULT_VEHTYPE" speedFactor="1.00" vaporized=""/>
    <tripinfo id="60" depart="107.00" departLane="51o_0" departPos="5.10" departSpeed="0.00" departDelay="-0.40" arrival="206.00" arrivalLane="53i_0" arrivalPos="10.00" arrivalSpeed="20.09" duration="99.00" routeLength="596.93" waitingTime="48.00" waitingCount="1" stopTime="0.00" timeLoss="68.52" rerouteNo="0" devices="tripinfo_60" vType="DEFAULT_VEHTYPE" speedFactor="1.08" vaporized=""/>
    <tripinfo id="66" depart="121.00" departLane="51o_0" departPos="5.10" departSpeed="0.00" departDelay="2.86" arrival="207.00" arrivalLane="54i_0" arrivalPos="10.00" arrivalSpeed="17.36" duration="86.00" routeLength="617.75" waitingTime="32.00" waitingCount="1" stopTime="0.00" timeLoss="49.01" rerouteNo="0" devices="tripinfo_66" vType="DEFAULT_VEHTYPE" speedFactor="0.91" vaporized=""/>
    <tripinfo id="70" depart="125.00" departLane="51o_0" departPos="5.10" departSpeed="0.00" departDelay="-0.30" arrival="208.00" arrivalLane="54i_0" arrivalPos="10.00" arrivalSpeed="19.11" duration="83.00" routeLength="617.75" waitingTime="31.00" waitingCount="1" stopTime="0.00" timeLoss="50.68" rerouteNo="0" devices="tripinfo_70" vType="DEFAULT_VEHTYPE" speedFactor="1.02" vaporized=""/>
    <tripinfo id="63" depart="112.00" departLane="51o_0" departPos="5.10" departSpeed="0.00" departDelay="-0.77" arrival="210.00" arrivalLane="53i_0" arrivalPos="10.00" arrivalSpeed="19.15" duration="98.00" routeLength="596.93" waitingTime="45.00" waitingCount="1" stopTime="0.00" timeLoss="65.36" rerouteNo="0" devices="tripinfo_63" vType="DEFAULT_VEHTYPE" speedFactor="0.99" vaporized=""/>
    <tripinfo id="86" depart="153.00" departLane="51o_0" departPos="5.10" departSpeed="0.00" departDelay="-0.94" arrival="210.00" arrivalLane="54i_0" arrivalPos="10.00" arrivalSpeed="18.65" duration="57.00" routeLength="617.75" waitingTime="4.00" waitingCount="1" stopTime="0.00" timeLoss="23.59" rerouteNo="0" devices="tripinfo_86" vType="DEFAULT_VEHTYPE" speedFactor="1.00" vaporized=""/>
    <tripinfo id="77" depart="137.00" departLane="51o_0" departPos="5.10" departSpeed="0.00" departDelay="-0.83" arrival="212.00" arrivalLane="53i_0" arrivalPos="10.00" arrivalSpeed="18.02" duration="75.00" routeLength="596.93" waitingTime="21.00" waitingCount="1" stopTime="0.00" timeLoss="42.44" rerouteNo="0" devices="tripinfo_77" vType="DEFAULT_VEHTYPE" speedFactor="0.98" vaporized=""/>
    <tripinfo id="89" depart="159.00" departLane="51o_0" departPos="5.10" departSpeed="0.00" departDelay="-0.31" arrival="212.00" arrivalLane="54i_0" arrivalPos="10.00" arrivalSpeed="19.20" duration="53.00" routeLength="617.75" waitingTime="0.00" waitingCount="0" stopTime="0.00" timeLoss="20.84" rerouteNo="0" devices="tripinfo_89" vType="DEFAULT_VEHTYPE" speedFactor="1.02" vaporized=""/>
    <tripinfo id="96" depart="171.00" departLane="51o_0" departPos="5.10" departSpeed="0.00" departDelay="-0.84" arrival="215.00" arrivalLane="53i_0" arrivalPos="10.00" arrivalSpeed="19.41" duration="44.00" routeLength="596.93" waitingTime="0.00" waitingCount="0" stopTime="0.00" timeLoss="12.09" rerouteNo="0" devices="tripinfo_96" vType="DEFAULT_VEHTYPE" speedFactor="1.01" vaporized=""/>
    <tripinfo id="97" depart="174.00" departLane="51o_0" departPos="5.10" departSpeed="0.00" departDelay="0.37" arrival="218.00" arrivalLane="54i_0" arrivalPos="10.00" arrivalSpeed="16.93" duration="44.00" routeLength="617.75" waitingTime="0.00" waitingCount="0" stopTime="0.00" timeLoss="7.59" rerouteNo="0" devices="tripinfo_97" vType="DEFAULT_VEHTYPE" speedFactor="0.91" vaporized=""/>
    <tripinfo id="99" depart="177.00" departLane="51o_0" departPos="5.10" departSpeed="0.00" departDelay="-0.21" arrival="220.00" arrivalLane="54i_0" arrivalPos="10.00" arrivalSpeed="20.86" duration="43.00" routeLength="617.75" waitingTime="0.00" waitingCount="0" stopTime="0.00" timeLoss="12.30" rerouteNo="0" devices="tripinfo_99" vType="DEFAULT_VEHTYPE" speedFactor="1.10" vaporized=""/>
    <tripinfo id="6" depart="10.00" departLane="4i_0" departPos="5.10" departSpeed="0.00" departDelay="-0.74" arrival="238.00" arrivalLane="51i_0" arrivalPos="10.00" arrivalSpeed="19.90" duration="228.00" routeLength="586.83" waitingTime="184.00" waitingCount="1" stopTime="0.00" timeLoss="197.68" rerouteNo="0" devices="tripinfo_6" vType="DEFAULT_VEHTYPE" speedFactor="1.05" vaporized=""/>
    <tripinfo id="21" depart="37.00" departLane="54o_0" departPos="5.10" departSpeed="0.00" departDelay="-0.59" arrival="239.00" arrivalLane="53i_1" arrivalPos="10.00" arrivalSpeed="18.44" duration="202.00" routeLength="615.10" waitingTime="157.00" waitingCount="1" stopTime="0.00" timeLoss="169.76" rerouteNo="0" devices="tripinfo_21" vType="DEFAULT_VEHTYPE" speedFactor="1.01" vaporized=""/>
    <tripinfo id="30" depart="53.00" departLane="54o_0" departPos="5.10" departSpeed="0.00" departDelay="-0.70" arrival="239.00" arrivalLane="51i_0" arrivalPos="10.00" arrivalSpeed="22.37" duration="186.00" routeLength="596.93" waitingTime="143.00" waitingCount="1" stopTime="0.00" timeLoss="159.12" rerouteNo="0" devices="tripinfo_30" vType="DEFAULT_VEHTYPE" speedFactor="1.18" vaporized=""/>
    <tripinfo id="9" depart="16.00" departLane="54o_0" departPos="5.10" departSpeed="0.00" departDelay="-0.11" arrival="241.00" arrivalLane="2o_0" arrivalPos="286.40" arrivalSpeed="15.45" duration="225.00" routeLength="607.65" waitingTime="176.00" waitingCount="1" stopTime="0.00" timeLoss="187.37" rerouteNo="0" devices="tripinfo_9" vType="DEFAULT_VEHTYPE" speedFactor="0.86" vaporized=""/>
    <tripinfo id="10" depart="19.00" departLane="54o_0" departPos="5.10" departSpeed="0.00" departDelay="1.10" arrival="241.00" arrivalLane="52i_1" arrivalPos="10.00" arrivalSpeed="21.01" duration="222.00" routeLength="617.75" waitingTime="175.00" waitingCount="1" stopTime="0.00" timeLoss="191.01" rerouteNo="0" devices="tripinfo_10" vType="DEFAULT_VEHTYPE" speedFactor="1.09" vaporized=""/>
    <tripinfo id="36" depart="64.00" departLane="54o_0" departPos="5.10" departSpeed="0.00" departDelay="-0.44" arrival="241.00" arrivalLane="53i_1" arrivalPos="10.00" arrivalSpeed="17.86" duration="177.00" routeLength="615.10" waitingTime="128.00" waitingCount="1" stopTime="0.00" timeLoss="143.94" rerouteNo="0" devices="tripinfo_36" vType="DEFAULT_VEHTYPE" speedFactor="0.97" vaporized=""/>
    <tripinfo id="42" depart="75.00" departLane="54o_0" departPos="5.10" departSpeed="0.00" departDelay="-0.18" arrival="242.00" arrivalLane="51i_0" arrivalPos="10.00" arrivalSpeed="20.99" duration="167.00" routeLength="596.93" waitingTime="122.00" waitingCount="1" stopTime="0.00" timeLoss="137.12" rerouteNo="0" devices="tripinfo_42" vType="DEFAULT_VEHTYPE" speedFactor="1.09" vaporized=""/>
    <tripinfo id="59" depart="106.00" departLane="54o_0" departPos="5.10" departSpeed="0.00" departDelay="0.39" arrival="243.00" arrivalLane="53i_1" arrivalPos="10.00" arrivalSpeed="17.87" duration="137.00" routeLength="615.10" waitingTime="84.00" waitingCount="1" stopTime="0.00" timeLoss="103.57" rerouteNo="0" devices="tripinfo_59" vType="DEFAULT_VEHTYPE" speedFactor="0.97" vaporized=""/>
    <tripinfo id="45" depart="80.00" departLane="54o_0" departPos="5.10" departSpeed="0.00" departDelay="-0.55" arrival="244.00" arrivalLane="51i_0" arrivalPos="10.00" arrivalSpeed="20.12" duration="164.00" routeLength="596.93" waitingTime="120.00" waitingCount="1" stopTime="0.00" timeLoss="134.74" rerouteNo="0" devices="tripinfo_45" vType="DEFAULT_VEHTYPE" speedFactor="1.09" vaporized=""/>
    <tripinfo id="61" depart="109.00" departLane="54o_0" departPos="5.10" departSpeed="0.00" departDelay="-0.19" arrival="244.00" arrivalLane="53i_1" arrivalPos="10.00" arrivalSpeed="20.84" duration="135.00" routeLength="615.10" waitingTime="83.00" waitingCount="2" stopTime="0.00" timeLoss="106.42" rerouteNo="0" devices="tripinfo_61" vType="DEFAULT_VEHTYPE" speedFactor="1.12" vaporized=""/>
    <tripinfo id="17" depart="30.00" departLane="54o_0" departPos="5.10" departSpeed="0.00" departDelay="-0.43" arrival="246.00" arrivalLane="52i_0" arrivalPos="10.00" arrivalSpeed="17.45" duration="216.00" routeLength="617.75" waitingTime="167.00" waitingCount="1" stopTime="0.00" timeLoss="180.53" rerouteNo="0" devices="tripinfo_17" vType="DEFAULT_VEHTYPE" speedFactor="0.94" vaporized=""/>
    <tripinfo id="88" depart="157.00" departLane="54o_0" departPos="5.10" departSpeed="0.00" departDelay="-0.52" arrival="246.00" arrivalLane="53i_1" arrivalPos="10.00" arrivalSpeed="18.92" duration="89.00" routeLength="615.10" waitingTime="42.00" waitingCount="1" stopTime="0.00" timeLoss="56.94" rerouteNo="0" devices="tripinfo_88" vType="DEFAULT_VEHTYPE" speedFactor="1.01" vaporized=""/>
    <tripinfo id="22" depart="40.00" departLane="54o_0" departPos="5.10" departSpeed="0.00" departDelay="0.62" arrival="247.00" arrivalLane="52i_0" arrivalPos="10.00" arrivalSpeed="18.63" duration="207.00" routeLength="617.75" waitingTime="157.00" waitingCount="1" stopTime="0.00" timeLoss="173.16" rerouteNo="0" devices="tripinfo_22" vType="DEFAULT_VEHTYPE" speedFactor="0.98" vaporized=""/>