<?xml version="1.0" encoding="UTF-8"?>

<!-- generated on Sat Nov  9 00:19:44 2019 by Eclipse SUMO Version 1.2.0
<configuration xmlns:xsi="http://www.w3.org/2001/XMLSchema-instance" xsi:noNamespaceSchemaLocation="http://sumo.dlr.de/xsd/sumoConfiguration.xsd">

    <input>
        <net-file value="simulation_files/sumocfgs/../networks/isolated_3_lanes_4_stages.net.xml"/>
        <route-files value="simulation_files/sumocfgs/../routes/isolated_3_lanes_40p.rou.xml"/>
    </input>

    <output>
        <tripinfo-output value="./output/exp21_rf_40p/throughput_pwtl__9_tripinfo_isolated.xml"/>
    </output>

    <time>
        <begin value="0"/>
        <step-length value="1"/>
    </time>

    <report>
        <verbose value="true"/>
        <no-step-log value="true"/>
    </report>

    <gui_only>
        <tracker-interval value="1"/>
    </gui_only>

</configuration>
-->

<tripinfos xmlns:xsi="http://www.w3.org/2001/XMLSchema-instance" xsi:noNamespaceSchemaLocation="http://sumo.dlr.de/xsd/tripinfo_file.xsd">
    <tripinfo id="8" depart="15.00" departLane="52o_0" departPos="5.10" departSpeed="0.00" departDelay="0.68" arrival="55.00" arrivalLane="51i_1" arrivalPos="10.00" arrivalSpeed="17.36" duration="40.00" routeLength="615.10" waitingTime="0.00" waitingCount="0" stopTime="0.00" timeLoss="5.42" rerouteNo="0" devices="tripinfo_8" vType="DEFAULT_VEHTYPE" speedFactor="0.94" vaporized=""/>
    <tripinfo id="7" depart="12.00" departLane="52o_0" departPos="5.10" departSpeed="0.00" departDelay="-0.53" arrival="57.00" arrivalLane="54i_0" arrivalPos="10.00" arrivalSpeed="16.24" duration="45.00" routeLength="596.93" waitingTime="0.00" waitingCount="0" stopTime="0.00" timeLoss="8.52" rerouteNo="0" devices="tripinfo_7" vType="DEFAULT_VEHTYPE" speedFactor="0.89" vaporized=""/>
    <tripinfo id="13" depart="23.00" departLane="52o_0" departPos="5.10" departSpeed="0.00" departDelay="-0.27" arrival="57.00" arrivalLane="51i_0" arrivalPos="10.00" arrivalSpeed="20.74" duration="34.00" routeLength="615.10" waitingTime="0.00" waitingCount="0" stopTime="0.00" timeLoss="5.47" rerouteNo="0" devices="tripinfo_13" vType="DEFAULT_VEHTYPE" speedFactor="1.12" vaporized=""/>
    <tripinfo id="16" depart="28.00" departLane="52o_0" departPos="5.10" departSpeed="0.00" departDelay="-0.64" arrival="70.00" arrivalLane="51i_0" arrivalPos="10.00" arrivalSpeed="16.06" duration="42.00" routeLength="615.10" waitingTime="0.00" waitingCount="0" stopTime="0.00" timeLoss="5.12" rerouteNo="0" devices="tripinfo_16" vType="DEFAULT_VEHTYPE" speedFactor="0.88" vaporized=""/>
    <tripinfo id="18" depart="32.00" departLane="52o_0" departPos="5.10" departSpeed="0.00" departDelay="-0.22" arrival="71.00" arrivalLane="51i_0" arrivalPos="10.00" arrivalSpeed="17.28" duration="39.00" routeLength="615.10" waitingTime="0.00" waitingCount="0" stopTime="0.00" timeLoss="4.94" rerouteNo="0" devices="tripinfo_18" vType="DEFAULT_VEHTYPE" speedFactor="0.94" vaporized=""/>
    <tripinfo id="20" depart="35.00" departLane="52o_0" departPos="5.10" departSpeed="0.00" departDelay="-0.80" arrival="75.00" arrivalLane="54i_0" arrivalPos="10.00" arrivalSpeed="19.54" duration="40.00" routeLength="596.93" waitingTime="0.00" waitingCount="0" stopTime="0.00" timeLoss="8.71" rerouteNo="0" devices="tripinfo_20" vType="DEFAULT_VEHTYPE" speedFactor="1.02" vaporized=""/>
    <tripinfo id="26" depart="46.00" departLane="52o_0" departPos="5.10" departSpeed="0.00" departDelay="-0.54" arrival="86.00" arrivalLane="51i_0" arrivalPos="10.00" arrivalSpeed="16.79" duration="40.00" routeLength="615.10" waitingTime="0.00" waitingCount="0" stopTime="0.00" timeLoss="5.42" rerouteNo="0" devices="tripinfo_26" vType="DEFAULT_VEHTYPE" speedFactor="0.92" vaporized=""/>
    <tripinfo id="27" depart="49.00" departLane="52o_0" departPos="5.10" departSpeed="0.00" departDelay="0.67" arrival="88.00" arrivalLane="51i_0" arrivalPos="10.00" arrivalSpeed="18.08" duration="39.00" routeLength="615.10" waitingTime="0.00" waitingCount="0" stopTime="0.00" timeLoss="5.57" rerouteNo="0" devices="tripinfo_27" vType="DEFAULT_VEHTYPE" speedFactor="0.95" vaporized=""/>
    <tripinfo id="37" depart="66.00" departLane="52o_0" departPos="5.10" departSpeed="0.00" departDelay="-0.23" arrival="99.00" arrivalLane="51i_0" arrivalPos="10.00" arrivalSpeed="21.83" duration="33.00" routeLength="615.10" waitingTime="0.00" waitingCount="0" stopTime="0.00" timeLoss="5.94" rerouteNo="0" devices="tripinfo_37" vType="DEFAULT_VEHTYPE" speedFactor="1.18" vaporized=""/>
    <tripinfo id="34" depart="60.00" departLane="52o_0" departPos="5.10" departSpeed="0.00" departDelay="-0.86" arrival="101.00" arrivalLane="53i_0" arrivalPos="10.00" arrivalSpeed="18.73" duration="41.00" routeLength="617.75" waitingTime="0.00" waitingCount="0" stopTime="0.00" timeLoss="7.04" rerouteNo="0" devices="tripinfo_34" vType="DEFAULT_VEHTYPE" speedFactor="0.99" vaporized=""/>
    <tripinfo id="38" depart="69.00" departLane="52o_0" departPos="5.10" departSpeed="0.00" departDelay="0.98" arrival="107.00" arrivalLane="54i_0" arrivalPos="10.00" arrivalSpeed="21.30" duration="38.00" routeLength="596.93" waitingTime="0.00" waitingCount="0" stopTime="0.00" timeLoss="9.23" rerouteNo="0" devices="tripinfo_38" vType="DEFAULT_VEHTYPE" speedFactor="1.10" vaporized=""/>
    <tripinfo id="43" depart="76.00" departLane="52o_0" departPos="5.10" departSpeed="0.00" departDelay="-0.97" arrival="116.00" arrivalLane="54i_0" arrivalPos="10.00" arrivalSpeed="19.84" duration="40.00" routeLength="596.93" waitingTime="0.00" waitingCount="0" stopTime="0.00" timeLoss="9.15" rerouteNo="0" devices="tripinfo_43" vType="DEFAULT_VEHTYPE" speedFactor="1.04" vaporized=""/>
    <tripinfo id="46" depart="82.00" departLane="52o_0" departPos="5.10" departSpeed="0.00" departDelay="-0.34" arrival="120.00" arrivalLane="51i_0" arrivalPos="10.00" arrivalSpeed="19.20" duration="38.00" routeLength="615.10" waitingTime="0.00" waitingCount="0" stopTime="0.00" timeLoss="6.00" rerouteNo="0" devices="tripinfo_46" vType="DEFAULT_VEHTYPE" speedFactor="1.00" vaporized=""/>
    <tripinfo id="51" depart="91.00" departLane="52o_0" departPos="5.10" departSpeed="0.00" departDelay="-0.29" arrival="129.00" arrivalLane="53i_0" arrivalPos="10.00" arrivalSpeed="21.97" duration="38.00" routeLength="617.75" waitingTime="0.00" waitingCount="0" stopTime="0.00" timeLoss="9.28" rerouteNo="0" devices="tripinfo_51" vType="DEFAULT_VEHTYPE" speedFactor="1.17" vaporized=""/>
    <tripinfo id="52" depart="94.00" departLane="52o_0" departPos="5.10" departSpeed="0.00" departDelay="0.92" arrival="136.00" arrivalLane="53i_0" arrivalPos="10.00" arrivalSpeed="19.71" duration="42.00" routeLength="617.75" waitingTime="0.00" waitingCount="0" stopTime="0.00" timeLoss="8.83" rerouteNo="0" devices="tripinfo_52" vType="DEFAULT_VEHTYPE" speedFactor="1.02" vaporized=""/>
    <tripinfo id="53" depart="97.00" departLane="52o_0" departPos="5.10" departSpeed="0.00" departDelay="2.13" arrival="137.00" arrivalLane="53i_0" arrivalPos="10.00" arrivalSpeed="20.80" duration="40.00" routeLength="617.75" waitingTime="0.00" waitingCount="0" stopTime="0.00" timeLoss="9.64" rerouteNo="0" devices="tripinfo_53" vType="DEFAULT_VEHTYPE" speedFactor="1.10" vaporized=""/>
    <tripinfo id="19" depart="34.00" departLane="53o_0" departPos="5.10" departSpeed="0.00" departDelay="-0.01" arrival="155.00" arrivalLane="54i_0" arrivalPos="10.00" arrivalSpeed="21.74" duration="121.00" routeLength="615.10" waitingTime="78.00" waitingCount="1" stopTime="0.00" timeLoss="93.11" rerouteNo="0" devices="tripinfo_19" vType="DEFAULT_VEHTYPE" speedFactor="1.16" vaporized=""/>
    <tripinfo id="0" depart="0.00" departLane="53o_0" departPos="5.10" departSpeed="0.00" departDelay="0.00" arrival="157.00" arrivalLane="51i_0" arrivalPos="10.00" arrivalSpeed="19.33" duration="157.00" routeLength="617.75" waitingTime="114.00" waitingCount="1" stopTime="0.00" timeLoss="126.20" rerouteNo="0" devices="tripinfo_0" vType="DEFAULT_VEHTYPE" speedFactor="1.06" vaporized=""/>
    <tripinfo id="31" depart="55.00" departLane="53o_0" departPos="5.10" departSpeed="0.00" departDelay="-0.49" arrival="157.00" arrivalLane="52i_0" arrivalPos="10.00" arrivalSpeed="22.39" duration="102.00" routeLength="596.93" waitingTime="59.00" waitingCount="1" stopTime="0.00" timeLoss="74.06" rerouteNo="0" devices="tripinfo_31" vType="DEFAULT_VEHTYPE" speedFactor="1.15" vaporized=""/>
    <tripinfo id="56" depart="100.00" departLane="53o_0" departPos="5.10" departSpeed="0.00" departDelay="-0.24" arrival="159.00" arrivalLane="54i_1" arrivalPos="10.00" arrivalSpeed="16.77" duration="59.00" routeLength="615.10" waitingTime="12.00" waitingCount="1" stopTime="0.00" timeLoss="23.30" rerouteNo="0" devices="tripinfo_56" vType="DEFAULT_VEHTYPE" speedFactor="0.90" vaporized=""/>
    <tripinfo id="4" depart="7.00" departLane="53o_0" departPos="5.10" departSpeed="0.00" departDelay="-0.16" arrival="160.00" arrivalLane="51i_0" arrivalPos="10.00" arrivalSpeed="19.63" duration="153.00" routeLength="617.75" waitingTime="108.00" waitingCount="1" stopTime="0.00" timeLoss="120.73" rerouteNo="0" devices="tripinfo_4" vType="DEFAULT_VEHTYPE" speedFactor="1.03" vaporized=""/>
    <tripinfo id="35" depart="62.00" departLane="53o_0" departPos="5.10" departSpeed="0.00" departDelay="-0.65" arrival="161.00" arrivalLane="52i_0" arrivalPos="10.00" arrivalSpeed="18.78" duration="99.00" routeLength="596.93" waitingTime="53.00" waitingCount="1" stopTime="0.00" timeLoss="68.07" rerouteNo="0" devices="tripinfo_35" vType="DEFAULT_VEHTYPE" speedFactor="1.02" vaporized=""/>
    <tripinfo id="14" depart="25.00" departLane="53o_0" departPos="5.10" departSpeed="0.00" departDelay="-0.06" arrival="162.00" arrivalLane="51i_0" arrivalPos="10.00" arrivalSpeed="19.20" duration="137.00" routeLength="617.75" waitingTime="91.00" waitingCount="1" stopTime="0.00" timeLoss="103.79" rerouteNo="0" devices="tripinfo_14" vType="DEFAULT_VEHTYPE" speedFactor="0.99" vaporized=""/>
    <tripinfo id="67" depart="119.00" departLane="53o_0" departPos="5.10" departSpeed="0.00" departDelay="-0.93" arrival="164.00" arrivalLane="54i_1" arrivalPos="10.00" arrivalSpeed="17.37" duration="45.00" routeLength="615.10" waitingTime="0.00" waitingCount="0" stopTime="0.00" timeLoss="10.10" rerouteNo="0" devices="tripinfo_67" vType="DEFAULT_VEHTYPE" speedFactor="0.91" vaporized=""/>
    <tripinfo id="41" depart="73.00" departLane="53o_0" departPos="5.10" departSpeed="0.00" departDelay="-0.39" arrival="165.00" arrivalLane="52i_0" arrivalPos="10.00" arrivalSpeed="17.60" duration="92.00" routeLength="596.93" waitingTime="44.00" waitingCount="1" stopTime="0.00" timeLoss="58.11" rerouteNo="0" devices="tripinfo_41" vType="DEFAULT_VEHTYPE" speedFactor="0.96" vaporized=""/>
    <tripinfo id="15" depart="28.00" departLane="53o_0" departPos="5.10" departSpeed="0.00" departDelay="1.15" arrival="167.00" arrivalLane="51i_0" arrivalPos="10.00" arrivalSpeed="17.17" duration="139.00" routeLength="617.75" waitingTime="89.00" waitingCount="1" stopTime="0.00" timeLoss="103.41" rerouteNo="0" devices="tripinfo_15" vType="DEFAULT_VEHTYPE" speedFactor="0.93" vaporized=""/>
    <tripinfo id="44" depart="78.00" departLane="53o_0" departPos="5.10" departSpeed="0.00" departDelay="-0.76" arrival="167.00" arrivalLane="52i_0" arrivalPos="10.00" arrivalSpeed="19.61" duration="89.00" routeLength="596.93" waitingTime="39.00" waitingCount="1" stopTime="0.00" timeLoss="57.60" rerouteNo="0" devices="tripinfo_44" vType="DEFAULT_VEHTYPE" speedFactor="1.04" vaporized=""/>
    <tripinfo id="23" depart="41.00" departLane="53o_0" departPos="5.10" departSpeed="0.00" departDelay="-0.17" arrival="170.00" arrivalLane="51i_0" arrivalPos="10.00" arrivalSpeed="17.17" duration="129.00" routeLength="617.75" waitingTime="76.00" waitingCount="1" stopTime="0.00" timeLoss="91.28" rerouteNo="0" devices="tripinfo_23" vType="DEFAULT_VEHTYPE" speedFactor="0.89" vaporized=""/>
    <tripinfo id="2" depart="4.00" departLane="51o_0" departPos="5.10" departSpeed="0.00" departDelay="0.42" arrival="173.00" arrivalLane="53i_0" arrivalPos="10.00" arrivalSpeed="18.69" duration="169.00" routeLength="596.93" waitingTime="124.00" waitingCount="1" stopTime="0.00" timeLoss="137.81" rerouteNo="0" devices="tripinfo_2" vType="DEFAULT_VEHTYPE" speedFactor="1.01" vaporized=""/>
    <tripinfo id="12" depart="22.00" departLane="51o_0" departPos="5.10" departSpeed="0.00" departDelay="0.52" arrival="174.00" arrivalLane="52i_0" arrivalPos="10.00" arrivalSpeed="20.11" duration="152.00" routeLength="615.10" waitingTime="108.00" waitingCount="1" stopTime="0.00" timeLoss="121.27" rerouteNo="0" devices="tripinfo_12" vType="DEFAULT_VEHTYPE" speedFactor="1.05" vaporized=""/>
    <tripinfo id="28" depart="50.00" departLane="51o_0" departPos="5.10" departSpeed="0.00" departDelay="-0.12" arrival="174.00" arrivalLane="52i_1" arrivalPos="10.00" arrivalSpeed="21.65" duration="124.00" routeLength="615.10" waitingTime="78.00" waitingCount="2" stopTime="0.00" timeLoss="95.69" rerouteNo="0" devices="tripinfo_28" vType="DEFAULT_VEHTYPE" speedFactor="1.13" vaporized=""/>
    <tripinfo id="3" depart="7.00" departLane="51o_0" departPos="5.10" departSpeed="0.00" departDelay="1.63" arrival="175.00" arrivalLane="53i_0" arrivalPos="10.00" arrivalSpeed="20.14" duration="168.00" routeLength="596.93" waitingTime="123.00" waitingCount="1" stopTime="0.00" timeLoss="138.14" rerouteNo="0" devices="tripinfo_3" vType="DEFAULT_VEHTYPE" speedFactor="1.08" vaporized=""/>
    <tripinfo id="1" depart="1.00" departLane="51o_0" departPos="5.10" departSpeed="0.00" departDelay="-0.79" arrival="176.00" arrivalLane="54i_0" arrivalPos="10.00" arrivalSpeed="18.13" duration="175.00" routeLength="617.75" waitingTime="126.00" waitingCount="1" stopTime="0.00" timeLoss="139.74" rerouteNo="0" devices="tripinfo_1" vType="DEFAULT_VEHTYPE" speedFactor="0.94" vaporized=""/>
    <tripinfo id="39" depart="69.00" departLane="51o_0" departPos="5.10" departSpeed="0.00" departDelay="-0.81" arrival="179.00" arrivalLane="52i_1" arrivalPos="10.00" arrivalSpeed="17.46" duration="110.00" routeLength="615.10" waitingTime="58.00" waitingCount="1" stopTime="0.00" timeLoss="74.43" rerouteNo="0" devices="tripinfo_39" vType="DEFAULT_VEHTYPE" speedFactor="0.90" vaporized=""/>
    <tripinfo id="25" depart="44.00" departLane="51o_0" departPos="5.10" departSpeed="0.00" departDelay="-0.75" arrival="180.00" arrivalLane="54i_0" arrivalPos="10.00" arrivalSpeed="15.79" duration="136.00" routeLength="617.75" waitingTime="85.00" waitingCount="1" stopTime="0.00" timeLoss="98.09" rerouteNo="0" devices="tripinfo_25" vType="DEFAULT_VEHTYPE" speedFactor="0.87" vaporized=""/>
    <tripinfo id="29" depart="53.00" departLane="51o_0" departPos="5.10" departSpeed="0.00" departDelay="1.09" arrival="181.00" arrivalLane="52i_2" arrivalPos="10.00" arrivalSpeed="17.29" duration="128.00" routeLength="615.10" waitingTime="78.00" waitingCount="1" stopTime="0.00" timeLoss="93.24" rerouteNo="0" devices="tripinfo_29" vType="DEFAULT_VEHTYPE" speedFactor="0.93" vaporized=""/>
    <tripinfo id="65" depart="118.00" departLane="51o_0" departPos="5.10" departSpeed="0.00" departDelay="1.65" arrival="181.00" arrivalLane="52i_1" arrivalPos="10.00" arrivalSpeed="15.87" duration="63.00" routeLength="615.10" waitingTime="14.00" waitingCount="1" stopTime="0.00" timeLoss="26.83" rerouteNo="0" devices="tripinfo_65" vType="DEFAULT_VEHTYPE" speedFactor="0.88" vaporized=""/>
    <tripinfo id="5" depart="10.00" departLane="51o_0" departPos="5.10" departSpeed="0.00" departDelay="1.05" arrival="182.00" arrivalLane="53i_0" arrivalPos="10.00" arrivalSpeed="14.97" duration="172.00" routeLength="596.93" waitingTime="119.00" waitingCount="1" stopTime="0.00" timeLoss="133.53" rerouteNo="0" devices="tripinfo_5" vType="DEFAULT_VEHTYPE" speedFactor="0.83" vaporized=""/>
    <tripinfo id="64" depart="115.00" departLane="51o_0" departPos="5.10" departSpeed="0.00" departDelay="0.44" arrival="183.00" arrivalLane="52i_1" arrivalPos="10.00" arrivalSpeed="18.15" duration="68.00" routeLength="615.10" waitingTime="15.00" waitingCount="2" stopTime="0.00" timeLoss="33.46" rerouteNo="0" devices="tripinfo_64" vType="DEFAULT_VEHTYPE" speedFactor="0.94" vaporized=""/>
    <tripinfo id="11" depart="19.00" departLane="51o_0" departPos="5.10" departSpeed="0.00" departDelay="-0.69" arrival="184.00" arrivalLane="53i_0" arrivalPos="10.00" arrivalSpeed="19.00" duration="165.00" routeLength="596.93" waitingTime="115.00" waitingCount="1" stopTime="0.00" timeLoss="133.70" rerouteNo="0" devices="tripinfo_11" vType="DEFAULT_VEHTYPE" speedFactor="1.03" vaporized=""/>
    <tripinfo id="71" depart="128.00" departLane="1i_0" departPos="5.10" departSpeed="0.00" departDelay="0.91" arrival="184.00" arrivalLane="52i_1" arrivalPos="10.00" arrivalSpeed="18.32" duration="56.00" routeLength="605.00" waitingTime="9.00" waitingCount="1" stopTime="0.00" timeLoss="23.74" rerouteNo="0" devices="tripinfo_71" vType="DEFAULT_VEHTYPE" speedFactor="0.97" vaporized=""/>
    <tripinfo id="32" depart="57.00" departLane="51o_0" departPos="5.10" departSpeed="0.00" departDelay="-0.28" arrival="185.00" arrivalLane="53i_0" arrivalPos="10.00" arrivalSpeed="18.86" duration="128.00" routeLength="596.93" waitingTime="77.00" waitingCount="1" stopTime="0.00" timeLoss="95.94" rerouteNo="0" devices="tripinfo_32" vType="DEFAULT_VEHTYPE" speedFactor="1.01" vaporized=""/>
    <tripinfo id="49" depart="87.00" departLane="51o_0" departPos="5.10" departSpeed="0.00" departDelay="-0.71" arrival="186.00" arrivalLane="54i_0" arrivalPos="10.00" arrivalSpeed="16.12" duration="99.00" routeLength="617.75" waitingTime="45.00" waitingCount="1" stopTime="0.00" timeLoss="59.61" rerouteNo="0" devices="tripinfo_49" vType="DEFAULT_VEHTYPE" speedFactor="0.85" vaporized=""/>
    <tripinfo id="40" depart="72.00" departLane="51o_0" departPos="5.10" departSpeed="0.00" departDelay="0.40" arrival="187.00" arrivalLane="53i_0" arrivalPos="10.00" arrivalSpeed="19.61" duration="115.00" routeLength="596.93" waitingTime="64.00" waitingCount="1" stopTime="0.00" timeLoss="83.80" rerouteNo="0" devices="tripinfo_40" vType="DEFAULT_VEHTYPE" speedFactor="1.03" vaporized=""/>
    <tripinfo id="54" depart="96.00" departLane="51o_0" departPos="5.10" departSpeed="0.00" departDelay="-0.66" arrival="187.00" arrivalLane="54i_1" arrivalPos="10.00" arrivalSpeed="19.24" duration="91.00" routeLength="617.75" waitingTime="40.00" waitingCount="1" stopTime="0.00" timeLoss="57.33" rerouteNo="0" devices="tripinfo_54" vType="DEFAULT_VEHTYPE" speedFactor="1.00" vaporized=""/>
    <tripinfo id="60" depart="107.00" departLane="51o_0" departPos="5.10" departSpeed="0.00" departDelay="-0.40" arrival="189.00" arrivalLane="53i_0" arrivalPos="10.00" arrivalSpeed="20.62" duration="82.00" routeLength="596.93" waitingTime="31.00" waitingCount="1" stopTime="0.00" timeLoss="51.64" rerouteNo="0" devices="tripinfo_60" vType="DEFAULT_VEHTYPE" speedFactor="1.08" vaporized=""/>
    <tripinfo id="66" depart="121.00" departLane="51o_0" departPos="5.10" departSpeed="0.00" departDelay="2.86" arrival="189.00" arrivalLane="54i_0" arrivalPos="10.00" arrivalSpeed="16.85" duration="68.00" routeLength="617.75" waitingTime="13.00" waitingCount="1" stopTime="0.00" timeLoss="31.02" rerouteNo="0" devices="tripinfo_66" vType="DEFAULT_VEHTYPE" speedFactor="0.91" vaporized=""/>
    <tripinfo id="70" depart="125.00" departLane="51o_0" departPos="5.10" departSpeed="0.00" departDelay="-0.30" arrival="190.00" arrivalLane="54i_0" arrivalPos="10.00" arrivalSpeed="19.66" duration="65.00" routeLength="617.75" waitingTime="12.00" waitingCount="1" stopTime="0.00" timeLoss="32.81" rerouteNo="0" devices="tripinfo_70" vType="DEFAULT_VEHTYPE" speedFactor="1.02" vaporized=""/>
    <tripinfo id="63" depart="112.00" departLane="51o_0" departPos="5.10" departSpeed="0.00" departDelay="-0.77" arrival="191.00" arrivalLane="53i_0" arrivalPos="10.00" arrivalSpeed="18.59" duration="79.00" routeLength="596.93" waitingTime="26.00" waitingCount="1" stopTime="0.00" timeLoss="47.21" rerouteNo="0" devices="tripinfo_63" vType="DEFAULT_VEHTYPE" speedFactor="0.99" vaporized=""/>
    <tripinfo id="77" depart="137.00" departLane="51o_0" departPos="5.10" departSpeed="0.00" departDelay="-0.83" arrival="194.00" arrivalLane="53i_0" arrivalPos="10.00" arrivalSpeed="18.86" duration="57.00" routeLength="596.93" waitingTime="3.00" waitingCount="1" stopTime="0.00" timeLoss="24.41" rerouteNo="0" devices="tripinfo_77" vType="DEFAULT_VEHTYPE" speedFactor="0.98" vaporized=""/>
    <tripinfo id="86" depart="153.00" departLane="51o_0" departPos="5.10" departSpeed="0.00" departDelay="-0.94" arrival="195.00" arrivalLane="54i_0" arrivalPos="10.00" arrivalSpeed="18.45" duration="42.00" routeLength="617.75" waitingTime="0.00" waitingCount="0" stopTime="0.00" timeLoss="9.11" rerouteNo="0" devices="tripinfo_86" vType="DEFAULT_VEHTYPE" speedFactor="1.00" vaporized=""/>
    <tripinfo id="89" depart="159.00" departLane="51o_0" departPos="5.10" departSpeed="0.00" departDelay="-0.31" arrival="199.00" arrivalLane="54i_0" arrivalPos="10.00" arrivalSpeed="18.97" duration="40.00" routeLength="617.75" waitingTime="0.00" waitingCount="0" stopTime="0.00" timeLoss="7.70" rerouteNo="0" devices="tripinfo_89" vType="DEFAULT_VEHTYPE" speedFactor="1.02" vaporized=""/>
    <tripinfo id="96" depart="171.00" departLane="51o_0" departPos="5.10" departSpeed="0.00" departDelay="-0.84" arrival="211.00" arrivalLane="53i_0" arrivalPos="10.00" arrivalSpeed="18.97" duration="40.00" routeLength="596.93" waitingTime="0.00" waitingCount="0" stopTime="0.00" timeLoss="8.24" rerouteNo="0" devices="tripinfo_96" vType="DEFAULT_VEHTYPE" speedFactor="1.01" vaporized=""/>
    <tripinfo id="97" depart="174.00" departLane="51o_0" departPos="5.10" departSpeed="0.00" departDelay="0.37" arrival="217.00" arrivalLane="54i_0" arrivalPos="10.00" arrivalSpeed="16.78" duration="43.00" routeLength="617.75" waitingTime="0.00" waitingCount="0" stopTime="0.00" timeLoss="6.64" rerouteNo="0" devices="tripinfo_97" vType="DEFAULT_VEHTYPE" speedFactor="0.91" vaporized=""/>
    <tripinfo id="99" depart="177.00" departLane="51o_0" departPos="5.10" departSpeed="0.00" departDelay="-0.21" arrival="219.00" arrivalLane="54i_0" arrivalPos="10.00" arrivalSpeed="20.75" duration="42.00" routeLength="617.75" waitingTime="0.00" waitingCount="0" stopTime="0.00" timeLoss="11.39" rerouteNo="0" devices="tripinfo_99" vType="DEFAULT_VEHTYPE" speedFactor="1.10" vaporized=""/>
    <tripinfo id="111" depart="198.00" departLane="51o_0" departPos="5.10" departSpeed="0.00" departDelay="-0.69" arrival="243.00" arrivalLane="53i_0" arrivalPos="10.00" arrivalSpeed="16.48" duration="45.00" routeLength="596.93" waitingTime="0.00" waitingCount="0" stopTime="0.00" timeLoss="7.98" rerouteNo="0" devices="tripinfo_111" vType="DEFAULT_VEHTYPE" speedFactor="0.87" vaporized=""/>
    <tripinfo id="6" depart="10.00" departLane="4i_0" departPos="5.10" departSpeed="0.00" departDelay="-0.74" arrival="253.00" arrivalLane="51i_0" arrivalPos="10.00" arrivalSpeed="20.28" duration="243.00" routeLength="586.83" waitingTime="199.00" waitingCount="1" stopTime="0.00" timeLoss="213.31" rerouteNo="0" devices="tripinfo_6" vType="DEFAULT_VEHTYPE" speedFactor="1.05" vaporized=""/>
    <tripinfo id="21" depart="37.00" departLane="54o_0" departPos="5.10" departSpeed="0.00" departDelay="-0.59" arrival="253.00" arrivalLane="53i_1" arrivalPos="10.00" arrivalSpeed="19.44" duration="216.00" routeLength="615.10" waitingTime="172.00" waitingCount="1" stopTime="0.00" timeLoss="184.67" rerouteNo="0" devices="tripinfo_21" vType="DEFAULT_VEHTYPE" speedFactor="1.01" vaporized=""/>
    <tripinfo id="30" depart="53.00" departLane="54o_0" departPos="5.10" departSpeed="0.00" departDelay="-0.70" arrival="255.00" arrivalLane="51i_0" arrivalPos="10.00" arrivalSpeed="22.67" duration="202.00" routeLength="596.93" waitingTime="158.00" waitingCount="1" stopTime="0.00" timeLoss="174.12" rerouteNo="0" devices="tripinfo_30" vType="DEFAULT_VEHTYPE" speedFactor="1.18" vaporized=""/>
    <tripinfo id="36" depart="64.00" departLane="54o_0" departPos="5.10" departSpeed="0.00" departDelay="-0.44" arrival="256.00" arrivalLane="53i_1" arrivalPos="10.00" arrivalSpeed="17.87" duration="192.00" routeLength="615.10" waitingTime="143.00" waitingCount="1" stopTime="0.00" timeLoss="159.07" rerouteNo="0" devices="tripinfo_36" vType="DEFAULT_VEHTYPE" speedFactor="0.97" vaporized=""/>
    <tripinfo id="9" depart="16.00" departLane="54o_0" departPos="5.10" departSpeed="0.00" departDelay="-0.11" arrival="257.00" arrivalLane="2o_0" arrivalPos="286.40" arrivalSpeed="16.60" duration="241.00" routeLength="607.65" waitingTime="191.00" waitingCount="1" stopTime="0.00" timeLoss="202.54" rerouteNo="0" devices="tripinfo_9" vType="DEFAULT_VEHTYPE" speedFactor="0.86" vaporized=""/>
    <tripinfo id="42" depart="75.00" departLane="54o_0" departPos="5.10" departSpeed="0.00" departDelay="-0.18" arrival="257.00" arrivalLane="51i_0" arrivalPos="10.00" arrivalSpeed="21.13" duration="182.00" routeLength="596.93" waitingTime="137.00" waitingCount="1" stopTime="0.00" timeLoss="152.79" rerouteNo="0" devices="tripinfo_42" vType="DEFAULT_VEHTYPE" speedFactor="1.09" vaporized=""/>
    <tripinfo id="10" depart="19.00" departLane="54o_0" departPos="5.10" departSpeed="0.00" departDelay="1.10" arrival="259.00" arrivalLane="52i_0" arrivalPos="10.00" arrivalSpeed="20.18" duration="240.00" routeLength="617.75" waitingTime="190.00" waitingCount="1" stopTime="0.00" timeLoss="209.17" rerouteNo="0" devices="tripinfo_10" vType="DEFAULT_VEHTYPE" speedFactor="1.09" vaporized=""/>
    <tripinfo id="45" depart="80.00" departLane="54o_0" departPos="5.10" departSpeed="0.00" departDelay="-0.55" arrival="259.00" arrivalLane="51i_0" arrivalPos="10.00" arrivalSpeed="20.06" duration="179.00" routeLength="596.93" waitingTime="135.00" waitingCount="1" stopTime="0.00" timeLoss="149.61" rerouteNo="0" devices="tripinfo_45" vType="DEFAULT_VEHTYPE" speedFactor="1.09" vaporized=""/>
    <tripinfo id="59" depart="106.00" departLane="54o_0" departPos="5.10" departSpeed="0.00" departDelay="0.39" arrival="259.00" arrivalLane="53i_1" arrivalPos="10.00" arrivalSpeed="18.39" duration="153.00" routeLength="615.10" waitingTime="100.00" waitingCount="1" stopTime="0.00" timeLoss="119.42" rerouteNo="0" devices="tripinfo_59" vType="DEFAULT_VEHTYPE" speedFactor="0.97" vaporized=""/>
    <tripinfo id="17" depart="30.00" departLane="54o_0" departPos="5.10" departSpeed="0.00" departDelay="-0.43" arrival="260.00" arrivalLane="52i_0" arrivalPos="10.00" arrivalSpeed="17.19" duration="230.00" routeLength="617.75" waitingTime="182.00" waitingCount="1" stopTime="0.00" timeLoss="194.90" rerouteNo="0" devices="tripinfo_17" vType="DEFAULT_VEHTYPE" speedFactor="0.94" vaporized=""/>
    <tripinfo id="61" depart="109.00" departLane="54o_0" departPos="5.10" departSpeed="0.00" departDelay="-0.19" arrival="260.00" arrivalLane="53i_1" arrivalPos="10.00" arrivalSpeed="20.65" duration="151.00" routeLength="615.10" waitingTime="98.00" waitingCount="2" stopTime="0.00" timeLoss="122.35" rerouteNo="0" devices="tripinfo_61" vType="DEFAULT_VEHTYPE" speedFactor="1.12" vaporized=""/>
    <tripinfo id="22" depart="40.00" departLane="54o_0" departPos="5.10" departSpeed="0.00" departDelay="0.62" arrival="262.00" arrivalLane="52i_0" arrivalPos="10.00" arrivalSpeed="18.91" duration="222.00" routeLength="617.75" waitingTime="172.00" waitingCount="1" stopTime="0.00" timeLoss="187.74" rerouteNo="0" devices="tripinfo_22" vType="DEFAULT_VEHTYPE" speedFactor="0.98" vaporized=""/>
    <tripinfo id="68" depart="121.00" departLane="52o_0" departPos="5.10" departSpeed="0.00" departDelay="-0.72" arrival="267.00" arrivalLane="54i_0" arrivalPos="10.00" arrivalSpeed="19.39" duration="146.00" routeLength="596.93" waitingTime="102.00" waitingCount="1" stopTime="0.00" timeLoss="115.11" rerouteNo="0" devices="tripinfo_68" vType="DEFAULT_VEHTYPE" speedFactor="1.04" vaporized=""/>
    <tripinfo id="84" depart="150.00" departLane="52o_0" departPos="5.10" departSpeed="0.00" departDelay="-0.36" arrival="267.00" arrivalLane="51i_0" arrivalPos="10.00" arrivalSpeed="21.12" duration="117.00" routeLength="615.10" waitingTime="73.00" waitingCount="1" stopTime="0.00" timeLoss="88.60" rerouteNo="0" devices="tripinfo_84" vType="DEFAULT_VEHTYPE" speedFactor="1.15" vaporized=""/>
    <tripinfo id="72" depart="128.00" departLane="52o_0" departPos="5.10" departSpeed="0.00" departDelay="-0.88" arrival="270.00" arrivalLane="53i_0" arrivalPos="10.00" arrivalSpeed="17.40" duration="142.00" routeLength="617.75" waitingTime="93.00" waitingCount="1" stopTime="0.00" timeLoss="106.37" rerouteNo="0" devices="tripinfo_72" vType="DEFAULT_VEHTYPE" speedFactor="0.94" vaporized=""/>
    <tripinfo id="73" depart="131.00" departLane="52o_0" departPos="5.10" departSpeed="0.00" departDelay="0.33" arrival="271.00" arrivalLane="53i_0" arrivalPos="10.00" arrivalSpeed="19.57" duration="140.00" routeLength="617.75" waitingTime="93.00" waitingCount="1" stopTime="0.00" timeLoss="108.77" rerouteNo="0" devices="tripinfo_73" vType="DEFAULT_VEHTYPE" speedFactor="1.06" vaporized=""/>
    <tripinfo id="75" depart="134.00" departLane="52o_0" departPos="5.10" departSpeed="0.00" departDelay="-0.25" arrival="271.00" arrivalLane="54i_0" arrivalPos="10.00" arrivalSpeed="18.68" duration="137.00" routeLength="596.93" waitingTime="89.00" waitingCount="1" stopTime="0.00" timeLoss="103.79" rerouteNo="0" devices="tripinfo_75" vType="DEFAULT_VEHTYPE" speedFactor="0.98" vaporized=""/>
    <tripinfo id="92" depart="164.00" departLane="52o_0" departPos="5.10" departSpeed="0.00" departDelay="-0.68" arrival="272.00" arrivalLane="51i_1" arrivalPos="10.00" arrivalSpeed="15.25" duration="108.00" routeLength="615.10" waitingTime="58.00" waitingCount="1" stopTime="0.00" timeLoss="69.90" rerouteNo="0" devices="tripinfo_92" vType="DEFAULT_VEHTYPE" speedFactor="0.83" vaporized=""/>